# vtk DataFile Version 3.0
AMR Mesh
ASCII
DATASET UNSTRUCTURED_GRID

POINTS 289 float
0.0 0.0 0
0.625 0.0 0
1.25 0.0 0
1.875 0.0 0
2.5 0.0 0
3.125 0.0 0
3.75 0.0 0
4.375 0.0 0
5.0 0.0 0
5.625 0.0 0
6.25 0.0 0
6.875 0.0 0
7.5 0.0 0
8.125 0.0 0
8.75 0.0 0
9.375 0.0 0
10.0 0.0 0
0.0 0.625 0
0.625 0.625 0
1.25 0.625 0
1.875 0.625 0
2.5 0.625 0
3.125 0.625 0
3.75 0.625 0
4.375 0.625 0
5.0 0.625 0
5.625 0.625 0
6.25 0.625 0
6.875 0.625 0
7.5 0.625 0
8.125 0.625 0
8.75 0.625 0
9.375 0.625 0
10.0 0.625 0
0.0 1.25 0
0.625 1.25 0
1.25 1.25 0
1.875 1.25 0
2.5 1.25 0
3.125 1.25 0
3.75 1.25 0
4.375 1.25 0
5.0 1.25 0
5.625 1.25 0
6.25 1.25 0
6.875 1.25 0
7.5 1.25 0
8.125 1.25 0
8.75 1.25 0
9.375 1.25 0
10.0 1.25 0
0.0 1.875 0
0.625 1.875 0
1.25 1.875 0
1.875 1.875 0
2.5 1.875 0
3.125 1.875 0
3.75 1.875 0
4.375 1.875 0
5.0 1.875 0
5.625 1.875 0
6.25 1.875 0
6.875 1.875 0
7.5 1.875 0
8.125 1.875 0
8.75 1.875 0
9.375 1.875 0
10.0 1.875 0
0.0 2.5 0
0.625 2.5 0
1.25 2.5 0
1.875 2.5 0
2.5 2.5 0
3.125 2.5 0
3.75 2.5 0
4.375 2.5 0
5.0 2.5 0
5.625 2.5 0
6.25 2.5 0
6.875 2.5 0
7.5 2.5 0
8.125 2.5 0
8.75 2.5 0
9.375 2.5 0
10.0 2.5 0
0.0 3.125 0
0.625 3.125 0
1.25 3.125 0
1.875 3.125 0
2.5 3.125 0
3.125 3.125 0
3.75 3.125 0
4.375 3.125 0
5.0 3.125 0
5.625 3.125 0
6.25 3.125 0
6.875 3.125 0
7.5 3.125 0
8.125 3.125 0
8.75 3.125 0
9.375 3.125 0
10.0 3.125 0
0.0 3.75 0
0.625 3.75 0
1.25 3.75 0
1.875 3.75 0
2.5 3.75 0
3.125 3.75 0
3.75 3.75 0
4.375 3.75 0
5.0 3.75 0
5.625 3.75 0
6.25 3.75 0
6.875 3.75 0
7.5 3.75 0
8.125 3.75 0
8.75 3.75 0
9.375 3.75 0
10.0 3.75 0
0.0 4.375 0
0.625 4.375 0
1.25 4.375 0
1.875 4.375 0
2.5 4.375 0
3.125 4.375 0
3.75 4.375 0
4.375 4.375 0
5.0 4.375 0
5.625 4.375 0
6.25 4.375 0
6.875 4.375 0
7.5 4.375 0
8.125 4.375 0
8.75 4.375 0
9.375 4.375 0
10.0 4.375 0
0.0 5.0 0
0.625 5.0 0
1.25 5.0 0
1.875 5.0 0
2.5 5.0 0
3.125 5.0 0
3.75 5.0 0
4.375 5.0 0
5.0 5.0 0
5.625 5.0 0
6.25 5.0 0
6.875 5.0 0
7.5 5.0 0
8.125 5.0 0
8.75 5.0 0
9.375 5.0 0
10.0 5.0 0
0.0 5.625 0
0.625 5.625 0
1.25 5.625 0
1.875 5.625 0
2.5 5.625 0
3.125 5.625 0
3.75 5.625 0
4.375 5.625 0
5.0 5.625 0
5.625 5.625 0
6.25 5.625 0
6.875 5.625 0
7.5 5.625 0
8.125 5.625 0
8.75 5.625 0
9.375 5.625 0
10.0 5.625 0
0.0 6.25 0
0.625 6.25 0
1.25 6.25 0
1.875 6.25 0
2.5 6.25 0
3.125 6.25 0
3.75 6.25 0
4.375 6.25 0
5.0 6.25 0
5.625 6.25 0
6.25 6.25 0
6.875 6.25 0
7.5 6.25 0
8.125 6.25 0
8.75 6.25 0
9.375 6.25 0
10.0 6.25 0
0.0 6.875 0
0.625 6.875 0
1.25 6.875 0
1.875 6.875 0
2.5 6.875 0
3.125 6.875 0
3.75 6.875 0
4.375 6.875 0
5.0 6.875 0
5.625 6.875 0
6.25 6.875 0
6.875 6.875 0
7.5 6.875 0
8.125 6.875 0
8.75 6.875 0
9.375 6.875 0
10.0 6.875 0
0.0 7.5 0
0.625 7.5 0
1.25 7.5 0
1.875 7.5 0
2.5 7.5 0
3.125 7.5 0
3.75 7.5 0
4.375 7.5 0
5.0 7.5 0
5.625 7.5 0
6.25 7.5 0
6.875 7.5 0
7.5 7.5 0
8.125 7.5 0
8.75 7.5 0
9.375 7.5 0
10.0 7.5 0
0.0 8.125 0
0.625 8.125 0
1.25 8.125 0
1.875 8.125 0
2.5 8.125 0
3.125 8.125 0
3.75 8.125 0
4.375 8.125 0
5.0 8.125 0
5.625 8.125 0
6.25 8.125 0
6.875 8.125 0
7.5 8.125 0
8.125 8.125 0
8.75 8.125 0
9.375 8.125 0
10.0 8.125 0
0.0 8.75 0
0.625 8.75 0
1.25 8.75 0
1.875 8.75 0
2.5 8.75 0
3.125 8.75 0
3.75 8.75 0
4.375 8.75 0
5.0 8.75 0
5.625 8.75 0
6.25 8.75 0
6.875 8.75 0
7.5 8.75 0
8.125 8.75 0
8.75 8.75 0
9.375 8.75 0
10.0 8.75 0
0.0 9.375 0
0.625 9.375 0
1.25 9.375 0
1.875 9.375 0
2.5 9.375 0
3.125 9.375 0
3.75 9.375 0
4.375 9.375 0
5.0 9.375 0
5.625 9.375 0
6.25 9.375 0
6.875 9.375 0
7.5 9.375 0
8.125 9.375 0
8.75 9.375 0
9.375 9.375 0
10.0 9.375 0
0.0 10.0 0
0.625 10.0 0
1.25 10.0 0
1.875 10.0 0
2.5 10.0 0
3.125 10.0 0
3.75 10.0 0
4.375 10.0 0
5.0 10.0 0
5.625 10.0 0
6.25 10.0 0
6.875 10.0 0
7.5 10.0 0
8.125 10.0 0
8.75 10.0 0
9.375 10.0 0
10.0 10.0 0

CELLS 256 1280
4 0 1 18 17
4 1 2 19 18
4 2 3 20 19
4 3 4 21 20
4 4 5 22 21
4 5 6 23 22
4 6 7 24 23
4 7 8 25 24
4 8 9 26 25
4 9 10 27 26
4 10 11 28 27
4 11 12 29 28
4 12 13 30 29
4 13 14 31 30
4 14 15 32 31
4 15 16 33 32
4 17 18 35 34
4 18 19 36 35
4 19 20 37 36
4 20 21 38 37
4 21 22 39 38
4 22 23 40 39
4 23 24 41 40
4 24 25 42 41
4 25 26 43 42
4 26 27 44 43
4 27 28 45 44
4 28 29 46 45
4 29 30 47 46
4 30 31 48 47
4 31 32 49 48
4 32 33 50 49
4 34 35 52 51
4 35 36 53 52
4 36 37 54 53
4 37 38 55 54
4 38 39 56 55
4 39 40 57 56
4 40 41 58 57
4 41 42 59 58
4 42 43 60 59
4 43 44 61 60
4 44 45 62 61
4 45 46 63 62
4 46 47 64 63
4 47 48 65 64
4 48 49 66 65
4 49 50 67 66
4 51 52 69 68
4 52 53 70 69
4 53 54 71 70
4 54 55 72 71
4 55 56 73 72
4 56 57 74 73
4 57 58 75 74
4 58 59 76 75
4 59 60 77 76
4 60 61 78 77
4 61 62 79 78
4 62 63 80 79
4 63 64 81 80
4 64 65 82 81
4 65 66 83 82
4 66 67 84 83
4 68 69 86 85
4 69 70 87 86
4 70 71 88 87
4 71 72 89 88
4 72 73 90 89
4 73 74 91 90
4 74 75 92 91
4 75 76 93 92
4 76 77 94 93
4 77 78 95 94
4 78 79 96 95
4 79 80 97 96
4 80 81 98 97
4 81 82 99 98
4 82 83 100 99
4 83 84 101 100
4 85 86 103 102
4 86 87 104 103
4 87 88 105 104
4 88 89 106 105
4 89 90 107 106
4 90 91 108 107
4 91 92 109 108
4 92 93 110 109
4 93 94 111 110
4 94 95 112 111
4 95 96 113 112
4 96 97 114 113
4 97 98 115 114
4 98 99 116 115
4 99 100 117 116
4 100 101 118 117
4 102 103 120 119
4 103 104 121 120
4 104 105 122 121
4 105 106 123 122
4 106 107 124 123
4 107 108 125 124
4 108 109 126 125
4 109 110 127 126
4 110 111 128 127
4 111 112 129 128
4 112 113 130 129
4 113 114 131 130
4 114 115 132 131
4 115 116 133 132
4 116 117 134 133
4 117 118 135 134
4 119 120 137 136
4 120 121 138 137
4 121 122 139 138
4 122 123 140 139
4 123 124 141 140
4 124 125 142 141
4 125 126 143 142
4 126 127 144 143
4 127 128 145 144
4 128 129 146 145
4 129 130 147 146
4 130 131 148 147
4 131 132 149 148
4 132 133 150 149
4 133 134 151 150
4 134 135 152 151
4 136 137 154 153
4 137 138 155 154
4 138 139 156 155
4 139 140 157 156
4 140 141 158 157
4 141 142 159 158
4 142 143 160 159
4 143 144 161 160
4 144 145 162 161
4 145 146 163 162
4 146 147 164 163
4 147 148 165 164
4 148 149 166 165
4 149 150 167 166
4 150 151 168 167
4 151 152 169 168
4 153 154 171 170
4 154 155 172 171
4 155 156 173 172
4 156 157 174 173
4 157 158 175 174
4 158 159 176 175
4 159 160 177 176
4 160 161 178 177
4 161 162 179 178
4 162 163 180 179
4 163 164 181 180
4 164 165 182 181
4 165 166 183 182
4 166 167 184 183
4 167 168 185 184
4 168 169 186 185
4 170 171 188 187
4 171 172 189 188
4 172 173 190 189
4 173 174 191 190
4 174 175 192 191
4 175 176 193 192
4 176 177 194 193
4 177 178 195 194
4 178 179 196 195
4 179 180 197 196
4 180 181 198 197
4 181 182 199 198
4 182 183 200 199
4 183 184 201 200
4 184 185 202 201
4 185 186 203 202
4 187 188 205 204
4 188 189 206 205
4 189 190 207 206
4 190 191 208 207
4 191 192 209 208
4 192 193 210 209
4 193 194 211 210
4 194 195 212 211
4 195 196 213 212
4 196 197 214 213
4 197 198 215 214
4 198 199 216 215
4 199 200 217 216
4 200 201 218 217
4 201 202 219 218
4 202 203 220 219
4 204 205 222 221
4 205 206 223 222
4 206 207 224 223
4 207 208 225 224
4 208 209 226 225
4 209 210 227 226
4 210 211 228 227
4 211 212 229 228
4 212 213 230 229
4 213 214 231 230
4 214 215 232 231
4 215 216 233 232
4 216 217 234 233
4 217 218 235 234
4 218 219 236 235
4 219 220 237 236
4 221 222 239 238
4 222 223 240 239
4 223 224 241 240
4 224 225 242 241
4 225 226 243 242
4 226 227 244 243
4 227 228 245 244
4 228 229 246 245
4 229 230 247 246
4 230 231 248 247
4 231 232 249 248
4 232 233 250 249
4 233 234 251 250
4 234 235 252 251
4 235 236 253 252
4 236 237 254 253
4 238 239 256 255
4 239 240 257 256
4 240 241 258 257
4 241 242 259 258
4 242 243 260 259
4 243 244 261 260
4 244 245 262 261
4 245 246 263 262
4 246 247 264 263
4 247 248 265 264
4 248 249 266 265
4 249 250 267 266
4 250 251 268 267
4 251 252 269 268
4 252 253 270 269
4 253 254 271 270
4 255 256 273 272
4 256 257 274 273
4 257 258 275 274
4 258 259 276 275
4 259 260 277 276
4 260 261 278 277
4 261 262 279 278
4 262 263 280 279
4 263 264 281 280
4 264 265 282 281
4 265 266 283 282
4 266 267 284 283
4 267 268 285 284
4 268 269 286 285
4 269 270 287 286
4 270 271 288 287

CELL_TYPES 256
9
9
9
9
9
9
9
9
9
9
9
9
9
9
9
9
9
9
9
9
9
9
9
9
9
9
9
9
9
9
9
9
9
9
9
9
9
9
9
9
9
9
9
9
9
9
9
9
9
9
9
9
9
9
9
9
9
9
9
9
9
9
9
9
9
9
9
9
9
9
9
9
9
9
9
9
9
9
9
9
9
9
9
9
9
9
9
9
9
9
9
9
9
9
9
9
9
9
9
9
9
9
9
9
9
9
9
9
9
9
9
9
9
9
9
9
9
9
9
9
9
9
9
9
9
9
9
9
9
9
9
9
9
9
9
9
9
9
9
9
9
9
9
9
9
9
9
9
9
9
9
9
9
9
9
9
9
9
9
9
9
9
9
9
9
9
9
9
9
9
9
9
9
9
9
9
9
9
9
9
9
9
9
9
9
9
9
9
9
9
9
9
9
9
9
9
9
9
9
9
9
9
9
9
9
9
9
9
9
9
9
9
9
9
9
9
9
9
9
9
9
9
9
9
9
9
9
9
9
9
9
9
9
9
9
9
9
9
9
9
9
9
9
9
9
9
9
9
9
9
9
9
9
9
9
9

CELL_DATA 256
SCALARS value float 1
LOOKUP_TABLE default
1.211090007801428
4.076008231843775
1.2070060366242397
1.9562230355821275
3.601958497625018
2.698613126222523
1.383330812659898
1.6352004004814917
0.8174520879154845
2.7019310445267983
3.278846301521246
3.2175428729925395
1.5205316085024068
2.0775662789834417
3.6162205191607533
4.9219663016190935
4.289247379383008
2.034886763258081
1.0789055641797658
4.786818127467207
0.5701581262271832
0.9635333966170201
0.4371038628031504
3.4580695703207622
0.7110889999788927
0.9733591387405566
0.6924861363600537
4.408548381659628
0.9998827179934305
2.771045403359136
3.468220026702057
1.7851843025057872
4.742732168208332
1.8160403570366372
0.6354189518913628
0.3529768837095121
1.6563170061384276
3.9225677185048107
4.529280510874373
4.683500532926802
1.795027945601373
1.3102137396522906
4.4613765126281395
1.4685837785896705
0.8413692035483616
0.8747177030215986
0.08947955038165811
0.31184354066517594
4.676053913996468
4.870592941068249
0.19519845526501156
4.658796856214208
4.556457908442762
1.6718432372224572
3.3945391237781
4.2336784213537015
1.050815585724102
0.5437374104837034
2.2747680497929874
4.4495669758356
0.6416113127388767
3.8629181271765556
3.3524453669429577
0.6972967604853264
2.7463223106707373
3.2948675768618374
0.6629789969184868
4.438546893097974
0.638444426656346
0.2645979056825343
1.4606079264998701
1.1739231162470276
0.751965180220473
4.53571889070229
2.7958237345503782
3.0834020030304528
0.2998782086719892
4.725180425505038
0.5146978170046079
4.9360057814280704
2.942884701398322
2.866623778874972
4.725080123914861
4.606450670826732
3.88025153719145
2.954242463885397
0.7708522803572282
0.2863609969088543
1.1433583543679142
3.459627794794362
3.5211379234987317
0.6059594103166704
0.9963516094033892
0.2807166978422859
3.217955256216711
2.0693898886351154
1.0634904867645316
0.9655685057279528
0.5421598036815034
2.353967433775302
0.9276432440336713
4.727782007555255
1.7097386824358423
3.1641721263408504
1.4735552442351958
0.5985578579003814
2.1711336897075277
1.7469206261526309
0.9738967489416972
1.2719920179987971
1.9321576712235937
3.197049730733525
1.834347176481093
3.4476912687169365
3.5669894009366896
1.972422644452313
1.9634293544535408
1.9585094844129491
0.9098684018661451
4.384450144479823
3.5543240580300832
0.7561753855934583
0.802462471910193
1.9005754480198445
4.890880735762991
1.7193388534250014
2.1333128011739366
3.151606709142966
2.4284392121343616
3.563955078727765
0.2589926959467914
2.622589833166895
3.8486167370774167
4.445667042670423
1.7684289606033643
0.412517883185205
3.5005581553348044
3.4776129549092993
0.9978260148361218
0.4743044549520975
1.6705555820736528
0.874835301464974
1.719864484425551
2.740637841431744
4.76785525838325
1.1614256721769594
3.254158553462856
3.617520020038359
1.9848765782611777
3.461525234049894
2.8373890541675806
2.6873599057392767
1.9046686406478464
2.6121147979318824
2.320068900053096
2.1732720026658674
0.47501613384127006
0.5920981882334309
2.835057005264044
2.4527974489710513
1.7588380023198225
0.3987777230791728
1.1887058059505278
2.4356145790379236
2.3520985126965517
3.489600764147977
4.569949551544859
1.9662170160185917
1.2760091787888421
0.19350130547115096
3.8948135909250476
4.538647425989487
2.177046090052154
0.6174222938780927
2.9695614194974573
4.702798916833842
4.372389154036437
2.380462342979235
3.751976635807655
3.332798304122801
1.570664060880328
1.9672703222599963
2.7375384837648644
4.869464498438492
1.9858750824010007
1.8112001350515572
1.410510321166677
2.6585933699770523
4.637385629386549
1.8445276208475598
4.653932459848631
3.173071309022331
2.4971656749814253
1.7868066980381663
4.479895670473199
4.432728401176385
2.5422886031403054
0.1432073994145544
4.530105913109564
2.3705642387097647
0.1584899643288007
3.7674977707393293
1.0476980242087663
1.0256131115006788
2.0427681310777346
4.883952739272841
0.7278182837133018
0.10396617506819028
2.376923250561116
0.12090957602924668
3.883084281690105
1.061835088712263
3.61136955633794
4.663410963753623
0.007667550565196302
4.729683967576185
4.458528860180463
0.6144079724727203
4.305561491373
2.9080622204343336
0.4885635711311087
0.7757268211178986
2.0901032759921807
3.3581756673631697
2.0874542304679595
3.247204062999998
0.3644795566127368
3.6499287722711364
3.5402756690873503
3.239135168147538
3.350356201962463
4.240867544567733
3.4027460360230806
1.2087094662290014
4.0234143808049625
2.069309381660276
4.691265505059695
3.930543017687023
3.1866848348506
0.6124955509002994
4.269535045051303
2.815366788048265
2.8886004519097987
3.2222915590116092
2.6541832332589843
2.691814082633461
3.8166861761806414
4.798708666822816
2.4926154346150113
4.471526590035052
4.350248569401367
3.1194689207905153
0.7812534942735228
1.8267905312515302
3.0740976048361306
4.804725917386526
