# vtk DataFile Version 3.0
AMR Mesh
ASCII
DATASET UNSTRUCTURED_GRID

POINTS 4913 float
0.0 0.0 0.0
0.625 0.0 0.0
0.625 0.625 0.0
0.0 0.625 0.0
0.0 0.0 0.625
0.625 0.0 0.625
0.625 0.625 0.625
0.0 0.625 0.625
0.0 0.0 1.25
0.625 0.0 1.25
0.625 0.625 1.25
0.0 0.625 1.25
0.625 1.25 0.0
0.0 1.25 0.0
0.625 1.25 0.625
0.0 1.25 0.625
0.625 1.25 1.25
0.0 1.25 1.25
1.25 0.0 0.0
1.25 0.625 0.0
1.25 0.0 0.625
1.25 0.625 0.625
1.25 0.0 1.25
1.25 0.625 1.25
1.25 1.25 0.0
1.25 1.25 0.625
1.25 1.25 1.25
0.0 0.0 1.875
0.625 0.0 1.875
0.625 0.625 1.875
0.0 0.625 1.875
0.0 0.0 2.5
0.625 0.0 2.5
0.625 0.625 2.5
0.0 0.625 2.5
0.625 1.25 1.875
0.0 1.25 1.875
0.625 1.25 2.5
0.0 1.25 2.5
1.25 0.0 1.875
1.25 0.625 1.875
1.25 0.0 2.5
1.25 0.625 2.5
1.25 1.25 1.875
1.25 1.25 2.5
0.625 1.875 0.0
0.0 1.875 0.0
0.625 1.875 0.625
0.0 1.875 0.625
0.625 1.875 1.25
0.0 1.875 1.25
0.625 2.5 0.0
0.0 2.5 0.0
0.625 2.5 0.625
0.0 2.5 0.625
0.625 2.5 1.25
0.0 2.5 1.25
1.25 1.875 0.0
1.25 1.875 0.625
1.25 1.875 1.25
1.25 2.5 0.0
1.25 2.5 0.625
1.25 2.5 1.25
0.625 1.875 1.875
0.0 1.875 1.875
0.625 1.875 2.5
0.0 1.875 2.5
0.625 2.5 1.875
0.0 2.5 1.875
0.625 2.5 2.5
0.0 2.5 2.5
1.25 1.875 1.875
1.25 1.875 2.5
1.25 2.5 1.875
1.25 2.5 2.5
1.875 0.0 0.0
1.875 0.625 0.0
1.875 0.0 0.625
1.875 0.625 0.625
1.875 0.0 1.25
1.875 0.625 1.25
1.875 1.25 0.0
1.875 1.25 0.625
1.875 1.25 1.25
2.5 0.0 0.0
2.5 0.625 0.0
2.5 0.0 0.625
2.5 0.625 0.625
2.5 0.0 1.25
2.5 0.625 1.25
2.5 1.25 0.0
2.5 1.25 0.625
2.5 1.25 1.25
1.875 0.0 1.875
1.875 0.625 1.875
1.875 0.0 2.5
1.875 0.625 2.5
1.875 1.25 1.875
1.875 1.25 2.5
2.5 0.0 1.875
2.5 0.625 1.875
2.5 0.0 2.5
2.5 0.625 2.5
2.5 1.25 1.875
2.5 1.25 2.5
1.875 1.875 0.0
1.875 1.875 0.625
1.875 1.875 1.25
1.875 2.5 0.0
1.875 2.5 0.625
1.875 2.5 1.25
2.5 1.875 0.0
2.5 1.875 0.625
2.5 1.875 1.25
2.5 2.5 0.0
2.5 2.5 0.625
2.5 2.5 1.25
1.875 1.875 1.875
1.875 1.875 2.5
1.875 2.5 1.875
1.875 2.5 2.5
2.5 1.875 1.875
2.5 1.875 2.5
2.5 2.5 1.875
2.5 2.5 2.5
0.0 0.0 3.125
0.625 0.0 3.125
0.625 0.625 3.125
0.0 0.625 3.125
0.0 0.0 3.75
0.625 0.0 3.75
0.625 0.625 3.75
0.0 0.625 3.75
0.625 1.25 3.125
0.0 1.25 3.125
0.625 1.25 3.75
0.0 1.25 3.75
1.25 0.0 3.125
1.25 0.625 3.125
1.25 0.0 3.75
1.25 0.625 3.75
1.25 1.25 3.125
1.25 1.25 3.75
0.0 0.0 4.375
0.625 0.0 4.375
0.625 0.625 4.375
0.0 0.625 4.375
0.0 0.0 5.0
0.625 0.0 5.0
0.625 0.625 5.0
0.0 0.625 5.0
0.625 1.25 4.375
0.0 1.25 4.375
0.625 1.25 5.0
0.0 1.25 5.0
1.25 0.0 4.375
1.25 0.625 4.375
1.25 0.0 5.0
1.25 0.625 5.0
1.25 1.25 4.375
1.25 1.25 5.0
0.625 1.875 3.125
0.0 1.875 3.125
0.625 1.875 3.75
0.0 1.875 3.75
0.625 2.5 3.125
0.0 2.5 3.125
0.625 2.5 3.75
0.0 2.5 3.75
1.25 1.875 3.125
1.25 1.875 3.75
1.25 2.5 3.125
1.25 2.5 3.75
0.625 1.875 4.375
0.0 1.875 4.375
0.625 1.875 5.0
0.0 1.875 5.0
0.625 2.5 4.375
0.0 2.5 4.375
0.625 2.5 5.0
0.0 2.5 5.0
1.25 1.875 4.375
1.25 1.875 5.0
1.25 2.5 4.375
1.25 2.5 5.0
1.875 0.0 3.125
1.875 0.625 3.125
1.875 0.0 3.75
1.875 0.625 3.75
1.875 1.25 3.125
1.875 1.25 3.75
2.5 0.0 3.125
2.5 0.625 3.125
2.5 0.0 3.75
2.5 0.625 3.75
2.5 1.25 3.125
2.5 1.25 3.75
1.875 0.0 4.375
1.875 0.625 4.375
1.875 0.0 5.0
1.875 0.625 5.0
1.875 1.25 4.375
1.875 1.25 5.0
2.5 0.0 4.375
2.5 0.625 4.375
2.5 0.0 5.0
2.5 0.625 5.0
2.5 1.25 4.375
2.5 1.25 5.0
1.875 1.875 3.125
1.875 1.875 3.75
1.875 2.5 3.125
1.875 2.5 3.75
2.5 1.875 3.125
2.5 1.875 3.75
2.5 2.5 3.125
2.5 2.5 3.75
1.875 1.875 4.375
1.875 1.875 5.0
1.875 2.5 4.375
1.875 2.5 5.0
2.5 1.875 4.375
2.5 1.875 5.0
2.5 2.5 4.375
2.5 2.5 5.0
0.625 3.125 0.0
0.0 3.125 0.0
0.625 3.125 0.625
0.0 3.125 0.625
0.625 3.125 1.25
0.0 3.125 1.25
0.625 3.75 0.0
0.0 3.75 0.0
0.625 3.75 0.625
0.0 3.75 0.625
0.625 3.75 1.25
0.0 3.75 1.25
1.25 3.125 0.0
1.25 3.125 0.625
1.25 3.125 1.25
1.25 3.75 0.0
1.25 3.75 0.625
1.25 3.75 1.25
0.625 3.125 1.875
0.0 3.125 1.875
0.625 3.125 2.5
0.0 3.125 2.5
0.625 3.75 1.875
0.0 3.75 1.875
0.625 3.75 2.5
0.0 3.75 2.5
1.25 3.125 1.875
1.25 3.125 2.5
1.25 3.75 1.875
1.25 3.75 2.5
0.625 4.375 0.0
0.0 4.375 0.0
0.625 4.375 0.625
0.0 4.375 0.625
0.625 4.375 1.25
0.0 4.375 1.25
0.625 5.0 0.0
0.0 5.0 0.0
0.625 5.0 0.625
0.0 5.0 0.625
0.625 5.0 1.25
0.0 5.0 1.25
1.25 4.375 0.0
1.25 4.375 0.625
1.25 4.375 1.25
1.25 5.0 0.0
1.25 5.0 0.625
1.25 5.0 1.25
0.625 4.375 1.875
0.0 4.375 1.875
0.625 4.375 2.5
0.0 4.375 2.5
0.625 5.0 1.875
0.0 5.0 1.875
0.625 5.0 2.5
0.0 5.0 2.5
1.25 4.375 1.875
1.25 4.375 2.5
1.25 5.0 1.875
1.25 5.0 2.5
1.875 3.125 0.0
1.875 3.125 0.625
1.875 3.125 1.25
1.875 3.75 0.0
1.875 3.75 0.625
1.875 3.75 1.25
2.5 3.125 0.0
2.5 3.125 0.625
2.5 3.125 1.25
2.5 3.75 0.0
2.5 3.75 0.625
2.5 3.75 1.25
1.875 3.125 1.875
1.875 3.125 2.5
1.875 3.75 1.875
1.875 3.75 2.5
2.5 3.125 1.875
2.5 3.125 2.5
2.5 3.75 1.875
2.5 3.75 2.5
1.875 4.375 0.0
1.875 4.375 0.625
1.875 4.375 1.25
1.875 5.0 0.0
1.875 5.0 0.625
1.875 5.0 1.25
2.5 4.375 0.0
2.5 4.375 0.625
2.5 4.375 1.25
2.5 5.0 0.0
2.5 5.0 0.625
2.5 5.0 1.25
1.875 4.375 1.875
1.875 4.375 2.5
1.875 5.0 1.875
1.875 5.0 2.5
2.5 4.375 1.875
2.5 4.375 2.5
2.5 5.0 1.875
2.5 5.0 2.5
0.625 3.125 3.125
0.0 3.125 3.125
0.625 3.125 3.75
0.0 3.125 3.75
0.625 3.75 3.125
0.0 3.75 3.125
0.625 3.75 3.75
0.0 3.75 3.75
1.25 3.125 3.125
1.25 3.125 3.75
1.25 3.75 3.125
1.25 3.75 3.75
0.625 3.125 4.375
0.0 3.125 4.375
0.625 3.125 5.0
0.0 3.125 5.0
0.625 3.75 4.375
0.0 3.75 4.375
0.625 3.75 5.0
0.0 3.75 5.0
1.25 3.125 4.375
1.25 3.125 5.0
1.25 3.75 4.375
1.25 3.75 5.0
0.625 4.375 3.125
0.0 4.375 3.125
0.625 4.375 3.75
0.0 4.375 3.75
0.625 5.0 3.125
0.0 5.0 3.125
0.625 5.0 3.75
0.0 5.0 3.75
1.25 4.375 3.125
1.25 4.375 3.75
1.25 5.0 3.125
1.25 5.0 3.75
0.625 4.375 4.375
0.0 4.375 4.375
0.625 4.375 5.0
0.0 4.375 5.0
0.625 5.0 4.375
0.0 5.0 4.375
0.625 5.0 5.0
0.0 5.0 5.0
1.25 4.375 4.375
1.25 4.375 5.0
1.25 5.0 4.375
1.25 5.0 5.0
1.875 3.125 3.125
1.875 3.125 3.75
1.875 3.75 3.125
1.875 3.75 3.75
2.5 3.125 3.125
2.5 3.125 3.75
2.5 3.75 3.125
2.5 3.75 3.75
1.875 3.125 4.375
1.875 3.125 5.0
1.875 3.75 4.375
1.875 3.75 5.0
2.5 3.125 4.375
2.5 3.125 5.0
2.5 3.75 4.375
2.5 3.75 5.0
1.875 4.375 3.125
1.875 4.375 3.75
1.875 5.0 3.125
1.875 5.0 3.75
2.5 4.375 3.125
2.5 4.375 3.75
2.5 5.0 3.125
2.5 5.0 3.75
1.875 4.375 4.375
1.875 4.375 5.0
1.875 5.0 4.375
1.875 5.0 5.0
2.5 4.375 4.375
2.5 4.375 5.0
2.5 5.0 4.375
2.5 5.0 5.0
3.125 0.0 0.0
3.125 0.625 0.0
3.125 0.0 0.625
3.125 0.625 0.625
3.125 0.0 1.25
3.125 0.625 1.25
3.125 1.25 0.0
3.125 1.25 0.625
3.125 1.25 1.25
3.75 0.0 0.0
3.75 0.625 0.0
3.75 0.0 0.625
3.75 0.625 0.625
3.75 0.0 1.25
3.75 0.625 1.25
3.75 1.25 0.0
3.75 1.25 0.625
3.75 1.25 1.25
3.125 0.0 1.875
3.125 0.625 1.875
3.125 0.0 2.5
3.125 0.625 2.5
3.125 1.25 1.875
3.125 1.25 2.5
3.75 0.0 1.875
3.75 0.625 1.875
3.75 0.0 2.5
3.75 0.625 2.5
3.75 1.25 1.875
3.75 1.25 2.5
3.125 1.875 0.0
3.125 1.875 0.625
3.125 1.875 1.25
3.125 2.5 0.0
3.125 2.5 0.625
3.125 2.5 1.25
3.75 1.875 0.0
3.75 1.875 0.625
3.75 1.875 1.25
3.75 2.5 0.0
3.75 2.5 0.625
3.75 2.5 1.25
3.125 1.875 1.875
3.125 1.875 2.5
3.125 2.5 1.875
3.125 2.5 2.5
3.75 1.875 1.875
3.75 1.875 2.5
3.75 2.5 1.875
3.75 2.5 2.5
4.375 0.0 0.0
4.375 0.625 0.0
4.375 0.0 0.625
4.375 0.625 0.625
4.375 0.0 1.25
4.375 0.625 1.25
4.375 1.25 0.0
4.375 1.25 0.625
4.375 1.25 1.25
5.0 0.0 0.0
5.0 0.625 0.0
5.0 0.0 0.625
5.0 0.625 0.625
5.0 0.0 1.25
5.0 0.625 1.25
5.0 1.25 0.0
5.0 1.25 0.625
5.0 1.25 1.25
4.375 0.0 1.875
4.375 0.625 1.875
4.375 0.0 2.5
4.375 0.625 2.5
4.375 1.25 1.875
4.375 1.25 2.5
5.0 0.0 1.875
5.0 0.625 1.875
5.0 0.0 2.5
5.0 0.625 2.5
5.0 1.25 1.875
5.0 1.25 2.5
4.375 1.875 0.0
4.375 1.875 0.625
4.375 1.875 1.25
4.375 2.5 0.0
4.375 2.5 0.625
4.375 2.5 1.25
5.0 1.875 0.0
5.0 1.875 0.625
5.0 1.875 1.25
5.0 2.5 0.0
5.0 2.5 0.625
5.0 2.5 1.25
4.375 1.875 1.875
4.375 1.875 2.5
4.375 2.5 1.875
4.375 2.5 2.5
5.0 1.875 1.875
5.0 1.875 2.5
5.0 2.5 1.875
5.0 2.5 2.5
3.125 0.0 3.125
3.125 0.625 3.125
3.125 0.0 3.75
3.125 0.625 3.75
3.125 1.25 3.125
3.125 1.25 3.75
3.75 0.0 3.125
3.75 0.625 3.125
3.75 0.0 3.75
3.75 0.625 3.75
3.75 1.25 3.125
3.75 1.25 3.75
3.125 0.0 4.375
3.125 0.625 4.375
3.125 0.0 5.0
3.125 0.625 5.0
3.125 1.25 4.375
3.125 1.25 5.0
3.75 0.0 4.375
3.75 0.625 4.375
3.75 0.0 5.0
3.75 0.625 5.0
3.75 1.25 4.375
3.75 1.25 5.0
3.125 1.875 3.125
3.125 1.875 3.75
3.125 2.5 3.125
3.125 2.5 3.75
3.75 1.875 3.125
3.75 1.875 3.75
3.75 2.5 3.125
3.75 2.5 3.75
3.125 1.875 4.375
3.125 1.875 5.0
3.125 2.5 4.375
3.125 2.5 5.0
3.75 1.875 4.375
3.75 1.875 5.0
3.75 2.5 4.375
3.75 2.5 5.0
4.375 0.0 3.125
4.375 0.625 3.125
4.375 0.0 3.75
4.375 0.625 3.75
4.375 1.25 3.125
4.375 1.25 3.75
5.0 0.0 3.125
5.0 0.625 3.125
5.0 0.0 3.75
5.0 0.625 3.75
5.0 1.25 3.125
5.0 1.25 3.75
4.375 0.0 4.375
4.375 0.625 4.375
4.375 0.0 5.0
4.375 0.625 5.0
4.375 1.25 4.375
4.375 1.25 5.0
5.0 0.0 4.375
5.0 0.625 4.375
5.0 0.0 5.0
5.0 0.625 5.0
5.0 1.25 4.375
5.0 1.25 5.0
4.375 1.875 3.125
4.375 1.875 3.75
4.375 2.5 3.125
4.375 2.5 3.75
5.0 1.875 3.125
5.0 1.875 3.75
5.0 2.5 3.125
5.0 2.5 3.75
4.375 1.875 4.375
4.375 1.875 5.0
4.375 2.5 4.375
4.375 2.5 5.0
5.0 1.875 4.375
5.0 1.875 5.0
5.0 2.5 4.375
5.0 2.5 5.0
3.125 3.125 0.0
3.125 3.125 0.625
3.125 3.125 1.25
3.125 3.75 0.0
3.125 3.75 0.625
3.125 3.75 1.25
3.75 3.125 0.0
3.75 3.125 0.625
3.75 3.125 1.25
3.75 3.75 0.0
3.75 3.75 0.625
3.75 3.75 1.25
3.125 3.125 1.875
3.125 3.125 2.5
3.125 3.75 1.875
3.125 3.75 2.5
3.75 3.125 1.875
3.75 3.125 2.5
3.75 3.75 1.875
3.75 3.75 2.5
3.125 4.375 0.0
3.125 4.375 0.625
3.125 4.375 1.25
3.125 5.0 0.0
3.125 5.0 0.625
3.125 5.0 1.25
3.75 4.375 0.0
3.75 4.375 0.625
3.75 4.375 1.25
3.75 5.0 0.0
3.75 5.0 0.625
3.75 5.0 1.25
3.125 4.375 1.875
3.125 4.375 2.5
3.125 5.0 1.875
3.125 5.0 2.5
3.75 4.375 1.875
3.75 4.375 2.5
3.75 5.0 1.875
3.75 5.0 2.5
4.375 3.125 0.0
4.375 3.125 0.625
4.375 3.125 1.25
4.375 3.75 0.0
4.375 3.75 0.625
4.375 3.75 1.25
5.0 3.125 0.0
5.0 3.125 0.625
5.0 3.125 1.25
5.0 3.75 0.0
5.0 3.75 0.625
5.0 3.75 1.25
4.375 3.125 1.875
4.375 3.125 2.5
4.375 3.75 1.875
4.375 3.75 2.5
5.0 3.125 1.875
5.0 3.125 2.5
5.0 3.75 1.875
5.0 3.75 2.5
4.375 4.375 0.0
4.375 4.375 0.625
[...]
CELL_DATA 4096
SCALARS value float 1
LOOKUP_TABLE default
2.4777534082392147
2.4023559739094997
2.140025292423774
2.8716283173631356
2.5712173443028643
2.1471036680536257
1.9414808810528688
2.606613078054832
1.6145145087821287
1.811250239314786
3.05396126257497
1.151336527148229
2.744439080502616
1.7790419473639476
0.4920770119644935
1.4537749938848776
2.3083711460927003
2.399634269506301
1.179184804965304
4.384471922982401
3.023839692052771
3.0186761726470848
2.1819504106583842
2.687443228646038
2.4844450497160167
3.4442311712574782
4.34586267272247
3.1482807634330747
3.39974978159937
2.3758273778995336
1.4333882759806056
3.4864616633944863
1.787891308026852
3.152394589628963
3.476819636391072
2.263752663270214
1.363838906046916
3.477128094414551
3.8739181400087492
2.556598543172566
2.2206762135634204
2.9594919445023087
3.03381734424476
2.8784118133188605
4.750250621013832
3.1337853223417955
2.6015026762100653
2.9160501942101984
1.9403133948086317
3.926340801913329
1.3973785926822015
3.5170544508036583
2.84265293312452
2.348639085523699
0.28308060296569204
2.6121322322959593
3.1847747433774427
2.7000577703538724
1.7520875325966356
2.2347920799816294
2.1695754122764983
1.433968562751425
1.2366410143479547
2.504661245911881
1.954595215979638
0.8212036436714953
2.0779791809346873
2.9552800703567828
0.4107682752813826
3.2056438883502247
2.8859280650962305
3.179565003564454
3.267613102311441
4.650661129433061
4.176611257192965
3.8767446985147975
3.3219713499132952
2.30841278428451
3.0921921562446713
1.9478470425420722
2.338333941682207
1.6731286276673498
3.394856066727165
3.057868966910366
1.84732268159789
2.634236299706938
5.0266634091394895
2.5830106100996724
2.9584475150509117
2.872978387954843
3.552478011529682
0.5179981061497092
2.401303013284644
1.3784331110688
1.6559696119506073
3.0273573019615565
2.7561773953783533
1.5964839534842552
1.3888228105227387
3.4726545920092917
3.2081433280744522
1.4887702754590337
2.0279073135524808
2.575019703555546
3.4024203907209474
2.564906591991229
2.2860297122750484
3.292365544941267
3.284835015543893
4.157743565534993
2.4263620805314288
1.1717770941588805
3.3509853259249103
2.4615134361940862
2.558481843586663
3.1476936667394293
2.108619837641794
1.9227557831852975
3.1077353553215286
4.713155084820848
3.867516944543511
2.847240915095022
3.4765999078306464
2.986261630417524
3.1389711720637754
2.4661914232882323
2.303875859226324
1.1149150924294673
3.253872060062183
3.250978871658882
4.328740008528529
2.07465545549264
2.6665684605035413
1.9466761195624853
3.631102458535643
1.0776223304192363
3.556609203955653
2.3416689459021542
3.120674285134513
2.308777937697355
3.1181728278867764
4.083416036918858
0.6739583955784199
3.5915202307997527
2.4583922691953983
2.636552621676023
4.092098222609831
4.134714294553929
1.8332143116523398
3.6809889315097832
1.5429282911057056
1.4096671274319124
1.0540313475080894
0.7430987125040813
1.8873436547494826
3.2096020600322754
2.5246330720650034
0.9982842385991608
1.395616461912632
2.9571832677987726
1.703733082210523
4.28419658936351
2.1190823179603884
2.644320359696567
2.6651971115615725
2.7718388157402822
1.7159104606448567
1.4624389154177249
1.8771936690689972
3.3992595287329275
3.3466414891690293
2.6182520077934974
2.760032225522407
2.847618601949087
2.633756031649092
2.1392082435755286
2.8510867346799778
1.2908870283779308
3.4871427485866313
2.225924052247032
1.9216130568033913
2.584147294651819
2.710205607341336
3.7509668662286417
3.728138585190255
4.723023594471973
2.2525876822025004
2.225898085030894
2.461392231308136
2.544680289945994
4.070978452566932
1.0963834402910564
1.338207970924731
2.1890159470493717
2.2976629394154915
2.847382888186675
2.1885231063848205
2.54055450926386
1.8658798128604415
2.869175423956727
3.200550892428255
4.584463201715877
2.9851420603484318
4.3505513412698615
0.7533181149463557
5.554630252555841
0.3830680724624229
1.476845006303489
2.8494897491529687
0.28733313615272404
2.789474279420773
2.5253413393037034
1.93492332784456
3.273915397275204
3.7672570159177803
2.3829039817002933
1.3923905512180448
1.6355998488977392
1.9750040254641963
3.122522467975684
2.2430247098076634
2.125748404120273
2.6231003839335783
3.0183225829064764
2.546118593936586
2.1352672462419524
3.0929045735666776
1.631695644896649
2.3595008745457395
2.52905077446908
1.7828537788606664
3.719769642704156
4.308738985895037
3.116120069007116
1.1498159139772066
2.6745658683920253
2.781895634804412
3.6662726402335073
3.482724531004139
3.005806574766397
2.3735615825439833
3.605172063240114
3.093259775202866
4.943912669506142
0.5983248651370712
2.9133911576334075
1.6842838489469614
3.7891982976915575
1.8701533676764588
4.3959642341122525
1.4627635056809591
1.3642437441278772
3.0688205460551674
2.4152863315655306
3.7112079048371656
1.767503141943675
2.4317231485742083
2.7375265478138
2.516664832281036
1.4014402908916488
2.0538646624271446
3.488639637580022
1.339254775764745
4.678514956886545
1.789393239790011
3.108380051271399
2.0148644295207925
3.850389203262723
3.278420286664732
2.7421627083124807
2.233624221420701
3.6908404003325495
3.0941245226784315
3.198218027902647
1.1983620955205385
1.311327381600486
3.7876160186649837
1.534983245213505
2.6442539370831457
2.5502329789812737
2.4733576170697904
0.6588524607142217
2.862022598985783
2.310869273907372
2.1863026271139945
1.3099359726669
2.7376963803944014
3.6603696599804314
2.1931413585920567
1.2797233687549636
2.441598385695234
4.208698178131864
3.7956948629480625
4.615312483177659
1.1855287879007494
2.226726428854103
3.3954359777483134
3.21577959923099
0.9666294368073263
2.1532911075525387
1.3202473460719168
1.7266342274617057
2.025198268616508
2.9506244015415213
1.7111891239983348
1.8612139966781198
0.7926603826598797
2.4416428205539935
3.6683438001016855
3.6640742262326897
2.3474160798511536
2.819083043416121
2.80336250634628
3.9870868786786855
3.197472369366913
3.2518369294821046
1.7835488898990577
1.3721327681015514
0.9783286247412277
4.35084127034037
2.3826077796602063
2.064725221361283
2.6319213796883743
1.6286168454794967
2.952123868876095
0.2659877933780046
2.9419727866456973
2.964245196094873
2.11234614470118
4.699489566262778
2.5465310065573084
4.173286734968621
2.9352899170560263
2.2788009517402226
2.3445515599401925
5.212184659714682
2.800566578883413
1.305967798338334
3.2995352117276946
2.520042769147564
3.120685664862137
2.233945083658207
2.141324736855306
4.122719387400407
2.008602297049706
2.55238927955206
3.070793213489975
4.596891151608586
2.835168822340746
2.8313930622750316
1.5102878874103598
1.3728131531063663
4.402246793010312
2.916825477129717
3.381673423675911
2.6261807066789937
1.8522778761522933
3.337431392183479
2.2945148026573636
0.8585276497276502
2.5050527733440804
3.208814596179956
3.593330028570174
2.756939142160099
2.7151280483311138
3.9202694637527227
3.10652689923378
3.8789208122705423
2.1267826376407886
1.8396581173772393
4.049533342902704
3.561260922815304
2.064368929426819
1.711513356041686
2.2658218874724327
2.413238742387707
2.037327541539228
2.7234521548923936
4.6594408352917025
2.046540768421794
3.000441147934149
3.1060778371210693
2.03512674232867
1.458343439128603
0.9076435236022498
1.7442479531923634
3.2858214288032785
1.051543148583757
3.5839271929103393
1.8489109194728448
1.5970905897923677
3.3593614686362674
3.373545071580766
2.900507305686591
2.227135496491102
1.49945208553167
3.6120047026924706
2.029932177120441
3.5026001938080107
1.892974536205477
2.1978551287423085
1.444898445915638
2.61599807155832
1.9175511483607948
0.5458931539552563
3.978754743135065
3.2101746303305045
3.2382052230263545
2.818616510350316
1.5966724277879885
2.7591827348491993
3.438543379381251
4.142077848446606
1.7475605809533952
1.899675702228853
1.988994735648666
2.2485032891817545
3.0610661850317586
3.0709014330345656
3.6557536143298255
0.12593250104379106
4.379578580222605
2.62079613861314
4.049901013490848
1.8133831948841599
1.3805923464660683
0.5308014114295196
3.5592354886654958
2.880937677107644
3.5258573094912578
2.97483251170781
1.439752189140012
3.3364309070271676
0.48290225198108905
2.37978589209359
3.032409452241007
3.197583267464897
6.134757755758596
0.7399521621546417
3.0677051917513563
1.7585457860727254
3.955807491769607
0.7217552481360423
1.1083077152939342
3.6307101694834403
2.523396449834973
1.7639665306579704
3.2606961344857
1.9038545679825016
2.516973370346316
3.0245624397622795
2.578951522524884
2.449999353879486
1.9837339291706708
2.544874076273801
2.8098964111906235
2.211727745024346
1.1730478710459498
3.570551454096176
3.0982491459256094
3.180293266058896
2.330415820429541
3.067785027770157
0.47665642007262043
2.1062266932984404
2.6037934426865146
1.3092590968056237
3.0899057649311743
2.80531521091091
3.042819681617682
1.288253939165849
1.9507924523933684
3.298337380265522
2.7749754307867414
3.0030037216382675
2.4181401988400824
2.881939711828749
0.5117533363075071
2.8862764839379462
3.2853775149551483
2.919449777788306
3.3912980556979626
2.0396328773971297
3.6864954962233814
3.587326410046352
2.477146775170522
3.3179132846073673
2.192297715942494
1.5149384270969635
2.2649240443615075
2.86303031115872
1.6672271377153773
4.000119128234345
3.234744420196543
1.6266670013364728
2.1177788480001043
2.450775356103807
1.5857184331713594
3.4830147870501547
4.044915172205795
3.031604328604385
3.1128792807485635
2.6803378105760793
1.0147960976048092
3.3771235631821317
2.6667086527389525
2.9796912455916695
1.0836325857487152
0.6149076660447335
1.3828553915799293
2.7999883907461127
2.3865721775910846
1.3202908629561696
1.7840604331437944
1.8373674177973127
2.099579891383675
2.5779326609445357
1.4842162460154562
2.343361942224692
2.075498694095298
2.2676791406269428
4.6112402849509175
2.764045161094622
5.327066773211325
4.058249256476117
2.994146313913017
4.008400269883789
4.883722556892777
3.438185897262588
2.3657106683183935
2.8885586170633513
2.3036359143374967
4.179434753519124
1.6468104893201363
3.098889631423645
2.198777888021949
1.9404748563223837
2.634626524964436
2.7595881176946895
3.3909631432172977
2.6685390562073508
3.262380956085517
3.8383893539582186
1.4741252023607863
4.095263771782568
3.4692233871341593
1.7377131751081296
2.2026845705020848
1.644616967715856
2.104009179311935
3.8495431767845543
1.2747287016370663
1.9809551866304558
1.408220051418451
3.11076558883431
3.438655872551229
2.3855798445858243
1.8592515878071438
1.4370514963684933
3.3727767253628675
3.4394415812619172
2.6753396140727475
0.8359000457405061
2.5956157054873987
2.375471554473631
2.3245859924244625
1.9153540275501224
3.11916371262177
3.534595205667337
1.5598923188444715
3.23864629500699
-0.4100431546001464
2.8172301277131173
1.6833347223546855
2.530951183876232
1.0047041365077116
3.5806730049183635
2.110389440374813
2.7047222645672693
2.2512834586846355
2.6837178407099698
2.5032775632197137
2.7192614813424165
4.1301647391013425
2.1569651901181013
2.879834031738573
1.6171554448399312
3.236044084954308
0.8539106441058744
5.849613831811922
1.8089039826951865
1.5064159150966945
0.8249281123362309
1.3488354898528232
4.033698670682959
3.405663233267634
2.6345591234606616
1.522812320809019
2.691570056410291
2.1858178160375474
2.8408788958349396
3.1067336023011247
1.0122791914580125
2.142990068593137
2.6969459133804103
3.1183200954827446
1.6889506183231937
1.6498645054984327
2.303373633010446
1.5862384416828186
1.6196700529579688
0.8773915682917091
3.4841252030524394
3.8051601940364876
1.6680003383023068
1.5196061436532666
4.629613766590817
3.4309515093954284
2.559445522201556
-0.34927842297913303
2.8433194500170536
2.5241720366914873
2.942659492042433
3.349914698130219
0.7421676396192822
3.1746978655735045
2.3029184884973604
3.4888246900528803
2.7082820343425618
3.605819432801969
2.607355299022408
1.9741423622315126
1.8788652352572974
3.543640036227373
3.6022264048042487
2.801103867453801
3.18958055865823
2.561752053639611
0.6653496004566724
0.893183627810024
2.9791867896431676
2.052096137604675
2.1907332606210317
1.771975239181994
2.3492838854600637
1.0079930991854624
2.4048284264330175
1.20291356024696
2.2683748775411083
3.729757772874545
3.155734172202621
3.445324940003241
1.6618173084982824
2.4918943866982404
2.7538399739344217
4.528809842353876
3.048062615479159
3.2677589657179142
1.8265064492105116
2.3538586115037115
3.08603255567485
3.2812996588314114
2.5456189255624198
1.5106364765897964
4.664973612651988
2.059140639018911
3.0068542775580407
2.1651451669832897
2.696026922849958
2.571580974784442
3.141030156257785
2.4071531505910126
1.594601035930059
1.3040852095831765
2.394012541330351
2.595211253502925
0.5819098931152571
1.3155731780485473
0.9622540077864181
3.924758058909807
3.694912068354661
2.0270957517371975
0.49407627157851186
1.6379152197250217
4.156627884961932
1.471013076983709
2.586921793430461
4.416437693396052
3.4210093141865108
2.393979494643433
1.9683644308133794
3.19909248952594
4.318539220889418
3.584361274423503
2.148461425577869
2.0136100296113826
2.3952427457279133
1.1552188506391445
2.5149952987653665
1.6880727812445913
2.041942960969407
2.339022784442411
1.5915566893669792
3.3237698172808865
2.2611967177175387
1.2091683040485117
1.6125239577069075
1.2445419271398743
2.30059243360339
3.1552268160983514
4.771842191219209
2.107487731830271
3.7044361659274565
1.4056194432848925
4.429088108427015
3.1051968582307468
3.7562212538069075
3.6039203594086273
1.4082342921469817
2.5324672231613117
2.2756029961080793
1.5773370928907862
2.4297098719542367
3.2216618029751616
3.075198417613351
1.6913083866433825
3.4058642426885575
4.996681646616246
2.669555101230528
3.0606136273411804
3.713081727055344
1.8147450159662906
2.0697474703503724
2.761792600651587
4.533193698141837
4.1139856966311
4.012717930003844
3.100050165695557
2.0353068510907857
1.4650983211516309
2.6736490644742785
2.1950679887261484
1.0673938570008368
2.7621284816941913
3.6233520946125077
2.8126024378357695
1.3302226623982867
3.617769151127532
2.182927097123592
0.6612631488356226
1.8047385445927362
2.8018093267138857
3.271425558754465
2.608706289639579
2.8590274900213295
3.4787832134234633
3.8445143489692573
2.6268314369267785
4.389145757039202
1.813671398371027
2.8941097770619204
2.9024656498558055
3.172407088910742
0.570829868293456
3.9346962459460366
3.393806223952022
2.329613703821185
3.465987500714912
1.5678762045752512
3.492734459086143
4.631988960322356
2.7718019021047553
2.43659053735243
1.311406307230818
2.0782178503978437
2.719752269915456
2.736173392896583
2.097573091060859
3.1194277041120015
2.3680322988740277
2.816463716747244
2.4941258253273406
0.1332737828424122
3.2723439604495796
1.7579950343873145
2.5377660725987212
2.042824714428804
2.737306681775344
2.9175260680154245
1.7078372958973986
2.3514120718589604
1.9985532212916604
2.6038758156302357
2.099109738531069
2.1657822843871526
1.9505898036181992
0.56190763390143
3.3430340204768734
4.0497927249617165
2.2027585943355517
2.8564597328680135
2.787269383752167
1.530227687753838
1.6980098091916638
2.7596111968560937
-0.03369013537905241
1.908118530983856
2.021391541628119
1.697931210277118
0.8559158903322763
1.2133859390741981
3.267659881472361
2.056010696872714
3.1421512829913283
1.8308628993941614
2.983551588914776
0.7062158841072745
1.0726291541033057
3.695649082723775
2.8567045245939178
3.21967187415384
1.9151980483662403
3.2228587360961463
1.6681649763981696
2.056157028153651
2.1223010222380867
2.7070735051806896
2.2492371387240233
1.1110551296276934
2.9992235292341
2.8213450500463213
3.664873050993542
2.5962550045457906
3.390592864358903
2.9186938389754555
2.1850851192902025
2.0591086207864553
2.4317935320457136
1.8641113210172346
2.690656177942926
3.2372726749405554
2.6947811645325133
2.438070218504591
1.8944633784355016
2.2693554029783765
2.01588362408174
2.0051673769099887
4.012708486202321
1.7299626588338475
1.2603574956206454
1.1833167868242023
2.7736470527086357
1.2246235205993872
4.146487638769305
2.623519382520018
1.148868168228311
2.6551910952655033
3.58166660964869
2.0538253767091024
3.886612096856183
2.108664919160382
1.6531265420247716
2.552991836377483
2.223016661210666
2.0320746607548172
2.9787348496497623
1.695924800946192
2.8827552841478954
3.196591834260157
3.583491008358899
5.52500040511498
2.965592431052773
2.3345509258099906
2.048611290668053
3.3743816629921186
2.4756108913147323
1.9884798392325136
2.6996041825661368
0.8654017565468284
3.724156229554482
3.5693645922659947
3.566472576939076
1.9681133376496713
3.4387981613524787
3.311766604088777
4.036096429819494
3.7584834879180296
3.0148976444079874
3.336849995612904
2.7921094944323666
1.28017868746233
2.9870450976429455
3.1670110173986457
1.3900722424267278
2.750349815104281
5.6871150543861955
2.9840603707468034
2.824830823125764
2.976551168565651
1.2649333723038565
2.2740664645252204
2.848512895345363
1.1173454996360495
1.877466971327764
2.184032083351774
2.9704673220437723
3.534824858022723
2.483126817357372
1.9689471325921013
3.453241571592499
2.1783412914735405
2.4357074272252155
2.7177227009785536
2.4468209180946956
1.5359891772183631
2.1897956421750866
2.9737394632470004
4.713170473516435
2.8169856358494285
2.045669051691257
2.6610453535942815
2.2156117284945696
3.241412505789513
3.027408832835575
2.4573948998512862
2.6935111876970117
3.1197974342932886
3.3041029153846986
1.789541185937675
1.1483151335655297
1.9974516474360324
1.7997442677363833
3.84495257030282
0.8978647923457317
1.4345581653808683
1.702484006870388
4.977539280280148
2.065489062215412
2.354220158134091
2.354027775616608
1.5850388280324705
2.480877378276879
2.9233956832211625
1.582754034125623
2.829789648463497
0.07376614131800396
2.1343557315062953
2.0272840000353054
2.925924914976927
2.1191051071868956
1.8416807835204954
2.3826816691385626
3.1821744083337995
3.214796586293001
1.369803160991936
3.005633887700889
3.569107863079255
-0.08874205171709715
3.3394066677698913
3.0629197403266186
5.28751208867174
2.941374922750184
2.33954653392634
0.9518251480516506
3.103945693081764
3.796850737406901
2.636628632734541
4.050519786598007
3.0521085363369838
3.1381961635536153
2.599469966910308
2.2153047074844947
3.892900972585467
3.152801661844043
0.7881448859103377
2.3057163610834035
2.3023523022574053
1.066388505718953
0.7265079616867509
2.5420696773107028
0.4492090419744881
4.094060212213406
3.105445319645831
2.8548677051712787
3.249882055910374
3.2851417535931446
3.8685401829751056
3.06464555083537
3.372921133426684
4.250950692723455
3.2395204175005996
-0.21489135711706853
2.966371132122494
3.672535994291856
2.2220180759340105
1.713860992447918
3.1425727309387543
3.2852398870097534
3.176814678143957
2.4717540044399207
2.3719864913463815
1.492272580859507
1.9490281046417433
1.6064522991267078
2.774058214963718
2.1360246281013717
2.565095145008916
3.0129913157190833
2.2425566769844916
2.744289476943732
2.6216310610453273
4.0709113739214935
1.764760304090999
1.2587054449015658
2.46156406544773
3.7765114878810424
1.8877012560662634
2.7538786350528492
2.372467991414725
3.585413891926022
2.1784322221126846
1.8766799986404519
2.4626198094299236
4.116178414774973
1.889669790188533
1.2300730956141745
0.5863566106967717
4.459830830052135
4.45597725093957
2.5151618610851445
4.073762322488992
3.378891656562457
2.9298017773130027
4.243007103553211
1.5280765100053606
3.557732862228077
1.980656608192704
3.113600145457587
2.1801639080329207
2.7642422724008036
1.960844327781731
2.7890058903819255
3.8077161887832887
1.2531168901956489
1.7906818596873648
3.9708752114946027
1.0665130266915275
1.283958255198186
1.1905427957744181
1.0075098941205811
1.1442767835597347
4.349476583304019
2.1681683844950586
3.59922518731919
2.400450569448523
4.38916075186089
4.313312210865127
2.4468800904202097
2.6983944491657534
1.5233452133420449
3.5549715956171966
2.2328747063064256
-0.8714577488593016
4.310446884860381
1.3176210082231978
3.7589402963857044
2.058710395927212
3.291519721012261
3.4409452246555925
3.1756138714469926
0.7754978041889553
0.5480472041118656
2.087182041281659
2.0310628611752537
3.047598934651094