# vtk DataFile Version 3.0
AMR Mesh
ASCII
DATASET UNSTRUCTURED_GRID

POINTS 389 float
0.0 0.0 0
0.625 0.0 0
0.625 0.625 0
0.0 0.625 0
0.625 1.25 0
0.0 1.25 0
1.25 0.0 0
1.25 0.625 0
1.25 1.25 0
0.625 1.875 0
0.0 1.875 0
0.625 2.5 0
0.0 2.5 0
1.25 1.875 0
1.25 2.5 0
1.875 0.0 0
1.875 0.625 0
1.875 1.25 0
2.5 0.0 0
2.5 0.625 0
2.5 1.25 0
1.875 1.875 0
1.875 2.5 0
2.5 1.875 0
2.5 2.5 0
0.625 3.125 0
0.0 3.125 0
0.625 3.75 0
0.0 3.75 0
1.25 3.125 0
1.25 3.75 0
0.625 4.375 0
0.0 4.375 0
0.625 5.0 0
0.0 5.0 0
1.25 4.375 0
1.25 5.0 0
1.875 3.125 0
1.875 3.75 0
2.1875 2.5 0
2.1875 2.8125 0
1.875 2.8125 0
2.1875 3.125 0
2.5 2.8125 0
2.5 3.125 0
2.5 3.75 0
1.875 4.375 0
1.875 5.0 0
2.5 4.375 0
2.5 5.0 0
3.125 0.0 0
3.125 0.625 0
3.125 1.25 0
3.75 0.0 0
3.75 0.625 0
3.75 1.25 0
2.8125 1.25 0
2.8125 1.5625 0
2.5 1.5625 0
2.8125 1.875 0
3.125 1.5625 0
3.125 1.875 0
3.125 2.5 0
3.75 1.875 0
3.75 2.5 0
4.375 0.0 0
4.375 0.625 0
4.375 1.25 0
5.0 0.0 0
5.0 0.625 0
5.0 1.25 0
4.375 1.875 0
4.375 2.5 0
5.0 1.875 0
5.0 2.5 0
3.125 3.125 0
3.125 3.75 0
3.75 3.125 0
3.75 3.75 0
3.125 4.375 0
3.125 5.0 0
3.75 4.375 0
3.75 5.0 0
4.375 3.125 0
4.375 3.75 0
5.0 3.125 0
5.0 3.75 0
4.375 4.375 0
4.375 5.0 0
5.0 4.375 0
5.0 5.0 0
0.625 5.625 0
0.0 5.625 0
0.625 6.25 0
0.0 6.25 0
1.25 5.625 0
1.25 6.25 0
0.625 6.875 0
0.0 6.875 0
0.625 7.5 0
0.0 7.5 0
1.25 6.875 0
0.9375 6.875 0
0.9375 7.1875 0
0.625 7.1875 0
0.9375 7.5 0
1.25 7.1875 0
1.25 7.5 0
1.875 5.625 0
1.875 6.25 0
2.5 5.625 0
2.5 6.25 0
1.875 6.875 0
1.875 7.5 0
2.5 6.875 0
2.5 7.5 0
0.625 8.125 0
0.0 8.125 0
0.625 8.75 0
0.0 8.75 0
1.25 8.125 0
1.25 8.75 0
0.625 9.375 0
0.0 9.375 0
0.625 10.0 0
0.0 10.0 0
0.9375 8.75 0
0.9375 9.0625 0
0.625 9.0625 0
0.9375 9.375 0
1.25 9.0625 0
1.25 9.375 0
1.25 10.0 0
1.875 8.125 0
1.875 8.75 0
2.5 8.125 0
2.5 8.75 0
1.875 9.375 0
1.875 10.0 0
2.5 9.375 0
2.5 10.0 0
3.125 5.625 0
2.8125 5.625 0
2.8125 5.9375 0
2.5 5.9375 0
2.8125 6.25 0
3.125 5.9375 0
3.125 6.25 0
3.75 5.625 0
3.75 6.25 0
3.125 6.875 0
3.125 7.5 0
3.75 6.875 0
3.75 7.5 0
4.375 5.625 0
4.375 6.25 0
5.0 5.625 0
5.0 6.25 0
4.375 6.875 0
4.375 7.5 0
5.0 6.875 0
5.0 7.5 0
3.125 8.125 0
3.125 8.75 0
3.75 8.125 0
3.75 8.75 0
3.125 9.375 0
3.125 10.0 0
3.75 9.375 0
3.75 10.0 0
4.375 8.125 0
4.375 8.75 0
5.0 8.125 0
5.0 8.75 0
4.375 9.375 0
4.375 10.0 0
5.0 9.375 0
5.0 10.0 0
5.625 0.0 0
5.625 0.625 0
5.3125 0.625 0
5.3125 0.9375 0
5.0 0.9375 0
5.3125 1.25 0
5.625 0.9375 0
5.625 1.25 0
6.25 0.0 0
6.25 0.625 0
6.25 1.25 0
5.625 1.875 0
5.625 2.5 0
6.25 1.875 0
6.25 2.5 0
6.875 0.0 0
6.875 0.625 0
6.875 1.25 0
7.5 0.0 0
7.5 0.625 0
7.5 1.25 0
6.875 1.875 0
6.5625 1.875 0
6.5625 2.1875 0
6.25 2.1875 0
6.5625 2.5 0
6.875 2.1875 0
6.875 2.5 0
7.5 1.875 0
7.5 2.5 0
5.625 3.125 0
5.625 3.75 0
6.25 3.125 0
6.25 3.75 0
5.3125 3.75 0
5.3125 4.0625 0
5.0 4.0625 0
5.3125 4.375 0
5.625 4.0625 0
5.625 4.375 0
5.625 5.0 0
6.25 4.375 0
6.25 5.0 0
6.875 3.125 0
6.875 3.75 0
7.5 3.125 0
7.5 3.75 0
6.5625 3.75 0
6.5625 4.0625 0
6.25 4.0625 0
6.5625 4.375 0
6.875 4.0625 0
6.875 4.375 0
6.875 5.0 0
7.5 4.375 0
7.1875 4.375 0
7.1875 4.6875 0
6.875 4.6875 0
7.1875 5.0 0
7.5 4.6875 0
7.5 5.0 0
8.125 0.0 0
8.125 0.625 0
8.125 1.25 0
8.75 0.0 0
8.75 0.625 0
8.75 1.25 0
7.8125 1.25 0
7.8125 1.5625 0
7.5 1.5625 0
7.8125 1.875 0
8.125 1.5625 0
8.125 1.875 0
8.125 2.5 0
8.75 1.875 0
8.75 2.5 0
9.375 0.0 0
9.375 0.625 0
9.375 1.25 0
10.0 0.0 0
10.0 0.625 0
10.0 1.25 0
9.375 1.875 0
9.375 2.5 0
10.0 1.875 0
10.0 2.5 0
8.125 3.125 0
8.125 3.75 0
8.75 3.125 0
8.75 3.75 0
8.125 4.375 0
7.8125 4.375 0
7.8125 4.6875 0
7.8125 5.0 0
8.125 4.6875 0
8.125 5.0 0
8.75 4.375 0
8.4375 4.375 0
8.4375 4.6875 0
8.4375 5.0 0
8.75 4.6875 0
8.75 5.0 0
9.375 3.125 0
9.375 3.75 0
10.0 3.125 0
10.0 3.75 0
9.375 4.375 0
9.375 5.0 0
10.0 4.375 0
10.0 5.0 0
5.625 5.625 0
5.625 6.25 0
6.25 5.625 0
6.25 6.25 0
5.625 6.875 0
5.625 7.5 0
5.9375 6.25 0
5.9375 6.5625 0
5.625 6.5625 0
5.9375 6.875 0
6.25 6.5625 0
6.25 6.875 0
6.25 7.5 0
6.875 5.625 0
6.875 6.25 0
7.5 5.625 0
7.1875 5.625 0
7.1875 5.9375 0
6.875 5.9375 0
7.1875 6.25 0
7.5 5.9375 0
7.5 6.25 0
6.875 6.875 0
6.875 7.5 0
7.5 6.875 0
7.1875 6.875 0
7.1875 7.1875 0
6.875 7.1875 0
7.1875 7.5 0
7.5 7.1875 0
7.5 7.5 0
5.625 8.125 0
5.625 8.75 0
6.25 8.125 0
6.25 8.75 0
5.625 9.375 0
5.625 10.0 0
5.9375 8.75 0
5.9375 9.0625 0
5.625 9.0625 0
5.9375 9.375 0
6.25 9.0625 0
6.25 9.375 0
6.25 10.0 0
6.875 8.125 0
6.875 8.75 0
7.5 8.125 0
7.5 8.75 0
6.875 9.375 0
6.875 10.0 0
7.5 9.375 0
7.5 10.0 0
8.125 5.625 0
7.8125 5.625 0
7.8125 5.9375 0
7.8125 6.25 0
8.125 5.9375 0
8.125 6.25 0
8.75 5.625 0
8.4375 5.625 0
8.4375 5.9375 0
8.4375 6.25 0
8.75 5.9375 0
8.75 6.25 0
8.125 6.875 0
8.125 7.5 0
8.75 6.875 0
8.75 7.5 0
9.375 5.625 0
9.0625 5.625 0
9.0625 5.9375 0
9.0625 6.25 0
9.375 5.9375 0
9.375 6.25 0
10.0 5.625 0
10.0 6.25 0
9.375 6.875 0
9.375 7.5 0
10.0 6.875 0
10.0 7.5 0
8.125 8.125 0
8.125 8.75 0
8.75 8.125 0
8.75 8.75 0
8.125 9.375 0
8.125 10.0 0
8.75 9.375 0
8.75 10.0 0
9.375 8.125 0
9.375 8.75 0
10.0 8.125 0
10.0 8.75 0
9.375 9.375 0
9.375 10.0 0
9.6875 8.75 0
9.6875 9.0625 0
9.375 9.0625 0
9.6875 9.375 0
10.0 9.0625 0
10.0 9.375 0
10.0 10.0 0

CELLS 319 1595
4 0 1 2 3
4 3 2 4 5
4 1 6 7 2
4 2 7 8 4
4 5 4 9 10
4 10 9 11 12
4 4 8 13 9
4 9 13 14 11
4 6 15 16 7
4 7 16 17 8
4 15 18 19 16
4 16 19 20 17
4 8 17 21 13
4 13 21 22 14
4 17 20 23 21
4 21 23 24 22
4 12 11 25 26
4 26 25 27 28
4 11 14 29 25
4 25 29 30 27
4 28 27 31 32
4 32 31 33 34
4 27 30 35 31
4 31 35 36 33
4 14 22 37 29
4 29 37 38 30
4 22 39 40 41
4 41 40 42 37
4 39 24 43 40
4 40 43 44 42
4 37 44 45 38
4 30 38 46 35
4 35 46 47 36
4 38 45 48 46
4 46 48 49 47
4 18 50 51 19
4 19 51 52 20
4 50 53 54 51
4 51 54 55 52
4 20 56 57 58
4 58 57 59 23
4 56 52 60 57
4 57 60 61 59
4 23 61 62 24
4 52 55 63 61
4 61 63 64 62
4 53 65 66 54
4 54 66 67 55
4 65 68 69 66
4 66 69 70 67
4 55 67 71 63
4 63 71 72 64
4 67 70 73 71
4 71 73 74 72
4 24 62 75 44
4 44 75 76 45
4 62 64 77 75
4 75 77 78 76
4 45 76 79 48
4 48 79 80 49
4 76 78 81 79
4 79 81 82 80
4 64 72 83 77
4 77 83 84 78
4 72 74 85 83
4 83 85 86 84
4 78 84 87 81
4 81 87 88 82
4 84 86 89 87
4 87 89 90 88
4 34 33 91 92
4 92 91 93 94
4 33 36 95 91
4 91 95 96 93
4 94 93 97 98
4 98 97 99 100
4 93 96 101 97
4 97 102 103 104
4 104 103 105 99
4 102 101 106 103
4 103 106 107 105
4 36 47 108 95
4 95 108 109 96
4 47 49 110 108
4 108 110 111 109
4 96 109 112 101
4 101 112 113 107
4 109 111 114 112
4 112 114 115 113
4 100 99 116 117
4 117 116 118 119
4 99 107 120 116
4 116 120 121 118
4 119 118 122 123
4 123 122 124 125
4 118 126 127 128
4 128 127 129 122
4 126 121 130 127
4 127 130 131 129
4 122 131 132 124
4 107 113 133 120
4 120 133 134 121
4 113 115 135 133
4 133 135 136 134
4 121 134 137 131
4 131 137 138 132
4 134 136 139 137
4 137 139 140 138
4 49 80 141 110
4 110 142 143 144
4 144 143 145 111
4 142 141 146 143
4 143 146 147 145
4 80 82 148 141
4 141 148 149 147
4 111 147 150 114
4 114 150 151 115
4 147 149 152 150
4 150 152 153 151
4 82 88 154 148
4 148 154 155 149
4 88 90 156 154
4 154 156 157 155
4 149 155 158 152
4 152 158 159 153
4 155 157 160 158
4 158 160 161 159
4 115 151 162 135
4 135 162 163 136
4 151 153 164 162
4 162 164 165 163
4 136 163 166 139
4 139 166 167 140
4 163 165 168 166
4 166 168 169 167
4 153 159 170 164
4 164 170 171 165
4 159 161 172 170
4 170 172 173 171
4 165 171 174 168
4 168 174 175 169
4 171 173 176 174
4 174 176 177 175
4 68 178 179 69
4 69 180 181 182
4 182 181 183 70
4 180 179 184 181
4 181 184 185 183
4 178 186 187 179
4 179 187 188 185
4 70 185 189 73
4 73 189 190 74
4 185 188 191 189
4 189 191 192 190
4 186 193 194 187
4 187 194 195 188
4 193 196 197 194
4 194 197 198 195
4 188 195 199 191
4 191 200 201 202
4 202 201 203 192
4 200 199 204 201
4 201 204 205 203
4 195 198 206 199
4 199 206 207 205
4 74 190 208 85
4 85 208 209 86
4 190 192 210 208
4 208 210 211 209
4 86 212 213 214
4 214 213 215 89
4 212 209 216 213
4 213 216 217 215
4 89 217 218 90
4 209 211 219 217
4 217 219 220 218
4 192 205 221 210
4 210 221 222 211
4 205 207 223 221
4 221 223 224 222
4 211 225 226 227
4 227 226 228 219
4 225 222 229 226
4 226 229 230 228
4 219 230 231 220
4 222 224 232 230
4 230 233 234 235
4 235 234 236 231
4 233 232 237 234
4 234 237 238 236
4 196 239 240 197
4 197 240 241 198
4 239 242 243 240
4 240 243 244 241
4 198 245 246 247
4 247 246 248 206
4 245 241 249 246
4 246 249 250 248
4 206 250 251 207
4 241 244 252 250
4 250 252 253 251
4 242 254 255 243
4 243 255 256 244
4 254 257 258 255
4 255 258 259 256
4 244 256 260 252
4 252 260 261 253
4 256 259 262 260
4 260 262 263 261
4 207 251 264 223
4 223 264 265 224
4 251 253 266 264
4 264 266 267 265
4 224 265 268 232
4 232 269 270 237
4 237 270 271 238
4 269 268 272 270
4 270 272 273 271
4 265 267 274 268
4 268 275 276 272
4 272 276 277 273
4 275 274 278 276
4 276 278 279 277
4 253 261 280 266
4 266 280 281 267
4 261 263 282 280
4 280 282 283 281
4 267 281 284 274
4 274 284 285 279
4 281 283 286 284
4 284 286 287 285
4 90 218 288 156
4 156 288 289 157
4 218 220 290 288
4 288 290 291 289
4 157 289 292 160
4 160 292 293 161
4 289 294 295 296
4 296 295 297 292
4 294 291 298 295
4 295 298 299 297
4 292 299 300 293
4 220 231 301 290
4 290 301 302 291
4 231 238 303 301
4 301 304 305 306
4 306 305 307 302
4 304 303 308 305
4 305 308 309 307
4 291 302 310 299
4 299 310 311 300
4 302 309 312 310
4 310 313 314 315
4 315 314 316 311
4 313 312 317 314
4 314 317 318 316
4 161 293 319 172
4 172 319 320 173
4 293 300 321 319
4 319 321 322 320
4 173 320 323 176
4 176 323 324 177
4 320 325 326 327
4 327 326 328 323
4 325 322 329 326
4 326 329 330 328
4 323 330 331 324
4 300 311 332 321
4 321 332 333 322
4 311 318 334 332
4 332 334 335 333
4 322 333 336 330
4 330 336 337 331
4 333 335 338 336
4 336 338 339 337
4 238 273 340 303
4 303 341 342 308
4 308 342 343 309
4 341 340 344 342
4 342 344 345 343
4 273 279 346 340
4 340 347 348 344
4 344 348 349 345
4 347 346 350 348
4 348 350 351 349
4 309 345 352 312
4 312 352 353 318
4 345 351 354 352
4 352 354 355 353
4 279 285 356 346
4 346 357 358 350
4 350 358 359 351
4 357 356 360 358
4 358 360 361 359
4 285 287 362 356
4 356 362 363 361
4 351 361 364 354
4 354 364 365 355
4 361 363 366 364
4 364 366 367 365
4 318 353 368 334
4 334 368 369 335
4 353 355 370 368
4 368 370 371 369
4 335 369 372 338
4 338 372 373 339
4 369 371 374 372
4 372 374 375 373
4 355 365 376 370
4 370 376 377 371
4 365 367 378 376
4 376 378 379 377
4 371 377 380 374
4 374 380 381 375
4 377 382 383 384
4 384 383 385 380
4 382 379 386 383
4 383 386 387 385
4 380 387 388 381

CELL_TYPES 319
9
9
9
9
9
9
9
9
9
9
9
9
9
9
9
9
9
9
9
9
9
9
9
9
9
9
9
9
9
9
9
9
9
9
9
9
9
9
9
9
9
9
9
9
9
9
9
9
9
9
9
9
9
9
9
9
9
9
9
9
9
9
9
9
9
9
9
9
9
9
9
9
9
9
9
9
9
9
9
9
9
9
9
9
9
9
9
9
9
9
9
9
9
9
9
9
9
9
9
9
9
9
9
9
9
9
9
9
9
9
9
9
9
9
9
9
9
9
9
9
9
9
9
9
9
9
9
9
9
9
9
9
9
9
9
9
9
9
9
9
9
9
9
9
9
9
9
9
9
9
9
9
9
9
9
9
9
9
9
9
9
9
9
9
9
9
9
9
9
9
9
9
9
9
9
9
9
9
9
9
9
9
9
9
9
9
9
9
9
9
9
9
9
9
9
9
9
9
9
9
9
9
9
9
9
9
9
9
9
9
9
9
9
9
9
9
9
9
9
9
9
9
9
9
9
9
9
9
9
9
9
9
9
9
9
9
9
9
9
9
9
9
9
9
9
9
9
9
9
9
9
9
9
9
9
9
9
9
9
9
9
9
9
9
9
9
9
9
9
9
9
9
9
9
9
9
9
9
9
9
9
9
9
9
9
9
9
9
9
9
9
9
9
9
9
9
9
9
9
9
9
9
9
9
9
9
9
9
9
9
9
9
9
9
9
9
9
9
9

CELL_DATA 319
SCALARS value float 1
LOOKUP_TABLE default
0.936135681642037
2.705767416337239
2.4634072440490606
3.8072155393278893
2.8456233305147642
3.8109344617777943
2.881112671495341
1.7675825144549129
2.1687209957359617
2.3024854406762714
0.8359202897242235
3.081871801716407
-0.8409153175553841
1.1119111022683839
3.1160223560155416
1.4241102104369134
1.6992642546584922
1.942277796540876
2.6264666053278636
2.3072579669020543
2.677960975816425
1.9618469465639974
2.0074811584833356
3.6651238171173652
2.2547352307662534
1.286989630509287
4.101027731024893
4.101027731024893
4.101027731024893
4.101027731024893
3.6160802740841262
3.9418042674171083
2.6693489614987747
2.344771124471264
2.1453595555291787
3.5220560584601124
1.3956047599949972
3.6030478186979025
1.2951917227504803
4.749285552664675
4.749285552664675
4.749285552664675
4.749285552664675
1.1327553537149337
1.6931131758869258
2.650153283094189
3.401164303300635
2.4400998790506248
1.4375106320124276
2.221473598732337
1.9209598819384874
3.627181204162988
3.0688473623421184
2.7326562918157187
2.685540738001766
3.6261750344271366
2.2332491650755277
3.7397603527657046
3.405136510676175
1.4273229049770215
3.8248934017778513
1.7686002146493252
2.8770256069218276
2.450804989466354
2.859313856116743
3.208753116122862
2.752209464581112
1.2597923391201988
1.1844122298922428
2.713961226717717
3.982383212297932
3.1227293456600846
2.329992616036015
3.1245500997234883
2.9240321758948284
1.2149626764724646
2.9955071373894935
4.01143036545689
4.01143036545689
4.01143036545689
4.01143036545689
0.5876449815937856
1.897176026786823
1.8350853506964773
3.395506199795194
2.8973934712447207
3.833276198181759
3.163313281577303
2.8250425518081395
1.4531652396576116
1.2913841092064606
2.7476098612996935
3.3669945816195685
3.649090109526947
1.4543844980673035
4.2761131880761205
4.2761131880761205
4.2761131880761205
4.2761131880761205
3.6005951158767635
3.3551247761057477
1.3873410933372783
2.8232531437395463
1.7274085920811169
1.45381036349337
2.1215175218162337
2.901080442169803
3.0357311274666
3.676237381748829
4.029484564103245
4.029484564103245
4.029484564103245
4.029484564103245
2.9147912039379325
3.071481799742689
2.065655805601131
2.12299657618429
3.311799006334015
3.3857657053218704
3.2463316620094345
1.4209565265937065
2.535468744737208
2.301537113638194
0.8800338088273982
2.5997300351952797
2.382939775353203
2.91502302395612
2.1749091118940385
0.43651347746678226
1.8758260598405903
3.835480889655927
3.5203981273620286
3.46386465668773
2.208057773747918
2.6857226404800025
2.605918602959101
1.435969445094655
2.164249483690731
1.3191038597770994
2.599937783783836
3.7629694093156845
1.0876840346629286
3.092786955610089
2.6916059981242313
4.393459490670384
4.393459490670384
4.393459490670384
4.393459490670384
2.0692789199299426
2.485747986446109
3.884218241513354
1.4204818698638257
2.1508561894187395
3.3782414480587275
2.5315105258001225
2.2117365469349775
2.1634468860980585
1.7841913990581162
1.108199295610845
5.6032467317543855
5.6032467317543855
5.6032467317543855
5.6032467317543855
2.9561028883089944
2.268439085557082
1.4788058982749355
2.796632965175982
2.6497022174574245
3.4726203606509465
4.115863169258572
4.115863169258572
4.115863169258572
4.115863169258572
1.8688611891693452
1.6275783562392174
2.6191172290415405
0.7390324842741944
2.143078244039688
3.1009571137501943
2.180282298475901
4.341188365066056
4.341188365066056
4.341188365066056
4.341188365066056
1.6241991376018783
3.5717446523173475
4.373847180164791
4.373847180164791
4.373847180164791
4.373847180164791
1.6489879245644938
2.4707696346145473
1.6906719682670455
3.4687984161631147
4.150464677109659
4.150464677109659
4.150464677109659
4.150464677109659
1.85688918279771
2.827903601531431
3.1174774267159986
3.878643873013588
2.2299373737799284
3.943603675194372
1.9179963834339042
3.4509552690881
3.1097584775374
0.725496470254263
2.9679374043341067
1.3019815363384157
1.781426640149764
2.055901469867852
1.1448744564699094
1.9198029334471531
4.54796282815994
4.54796282815994
4.54796282815994
4.54796282815994
0.8988916951088028
4.107307158401285
4.107307158401285
4.107307158401285
4.107307158401285
2.3396079300898895
2.1698165882484197
1.739667515754256
2.3008079246203845
3.201389411704011
2.855180297156321
1.810700891563128
2.5918500876462565
3.364388302498174
0.9858157788745132
0.9506682876286208
0.6161029695420674
2.808532454418613
3.6466249419734025
4.385578123425237
4.385578123425237
4.385578123425237
4.385578123425237
2.682878890801795
2.867985775180407
2.8387647189692857
2.013589031988059
5.044052509590377
5.044052509590377
5.044052509590377
5.044052509590377
3.031440047078247
0.11805152489929638
2.214204019848051
4.412265898205159
4.412265898205159
4.412265898205159
4.412265898205159
2.7417385770365605
2.884496816779323
2.3330954560901733
3.8802409369731348
2.036467044684361
2.6004100342150016
4.03809628187554
4.03809628187554
4.03809628187554
4.03809628187554
0.6500398850120781
2.2170578887164516
2.251711733470983
2.8732686442871773
1.9206048054033675
1.9248749460662087
3.783210227670609
0.8170285443299841
1.36429181228454
3.348469220649874
4.29118806981856
4.29118806981856
4.29118806981856
4.29118806981856
2.912295356408153
4.431499982805483
4.431499982805483
4.431499982805483
4.431499982805483
1.8239088765477667
3.538204626117378
1.979710071595406
1.0559906042843437
1.8745869358631437
5.004381863784361
5.004381863784361
5.004381863784361
5.004381863784361
3.1055062203372126
0.8514665089257654
1.7371500985874113
1.998660171523291
3.0035382743321377
2.5461293702450325
2.1608903358302682
1.421888495327411
2.3485611022592106
2.0831560767634247
2.99490306899026
2.738694705702173
2.997957285909028
3.3785719553906413
1.6227301835030492
1.149737930181595
2.012281494019261
0.2399740925715519
1.6120722631463849
1.7822462410989819
4.001821538719039
4.001821538719039
4.001821538719039
4.001821538719039
1.8940110123857299
