# vtk DataFile Version 3.0
AMR Mesh
ASCII
DATASET UNSTRUCTURED_GRID

POINTS 441 float
0.0 0.0 0
0.5 0.0 0
1.0 0.0 0
1.5 0.0 0
2.0 0.0 0
2.5 0.0 0
3.0 0.0 0
3.5 0.0 0
4.0 0.0 0
4.5 0.0 0
5.0 0.0 0
5.5 0.0 0
6.0 0.0 0
6.5 0.0 0
7.0 0.0 0
7.5 0.0 0
8.0 0.0 0
8.5 0.0 0
9.0 0.0 0
9.5 0.0 0
10.0 0.0 0
0.0 0.5 0
0.5 0.5 0
1.0 0.5 0
1.5 0.5 0
2.0 0.5 0
2.5 0.5 0
3.0 0.5 0
3.5 0.5 0
4.0 0.5 0
4.5 0.5 0
5.0 0.5 0
5.5 0.5 0
6.0 0.5 0
6.5 0.5 0
7.0 0.5 0
7.5 0.5 0
8.0 0.5 0
8.5 0.5 0
9.0 0.5 0
9.5 0.5 0
10.0 0.5 0
0.0 1.0 0
0.5 1.0 0
1.0 1.0 0
1.5 1.0 0
2.0 1.0 0
2.5 1.0 0
3.0 1.0 0
3.5 1.0 0
4.0 1.0 0
4.5 1.0 0
5.0 1.0 0
5.5 1.0 0
6.0 1.0 0
6.5 1.0 0
7.0 1.0 0
7.5 1.0 0
8.0 1.0 0
8.5 1.0 0
9.0 1.0 0
9.5 1.0 0
10.0 1.0 0
0.0 1.5 0
0.5 1.5 0
1.0 1.5 0
1.5 1.5 0
2.0 1.5 0
2.5 1.5 0
3.0 1.5 0
3.5 1.5 0
4.0 1.5 0
4.5 1.5 0
5.0 1.5 0
5.5 1.5 0
6.0 1.5 0
6.5 1.5 0
7.0 1.5 0
7.5 1.5 0
8.0 1.5 0
8.5 1.5 0
9.0 1.5 0
9.5 1.5 0
10.0 1.5 0
0.0 2.0 0
0.5 2.0 0
1.0 2.0 0
1.5 2.0 0
2.0 2.0 0
2.5 2.0 0
3.0 2.0 0
3.5 2.0 0
4.0 2.0 0
4.5 2.0 0
5.0 2.0 0
5.5 2.0 0
6.0 2.0 0
6.5 2.0 0
7.0 2.0 0
7.5 2.0 0
8.0 2.0 0
8.5 2.0 0
9.0 2.0 0
9.5 2.0 0
10.0 2.0 0
0.0 2.5 0
0.5 2.5 0
1.0 2.5 0
1.5 2.5 0
2.0 2.5 0
2.5 2.5 0
3.0 2.5 0
3.5 2.5 0
4.0 2.5 0
4.5 2.5 0
5.0 2.5 0
5.5 2.5 0
6.0 2.5 0
6.5 2.5 0
7.0 2.5 0
7.5 2.5 0
8.0 2.5 0
8.5 2.5 0
9.0 2.5 0
9.5 2.5 0
10.0 2.5 0
0.0 3.0 0
0.5 3.0 0
1.0 3.0 0
1.5 3.0 0
2.0 3.0 0
2.5 3.0 0
3.0 3.0 0
3.5 3.0 0
4.0 3.0 0
4.5 3.0 0
5.0 3.0 0
5.5 3.0 0
6.0 3.0 0
6.5 3.0 0
7.0 3.0 0
7.5 3.0 0
8.0 3.0 0
8.5 3.0 0
9.0 3.0 0
9.5 3.0 0
10.0 3.0 0
0.0 3.5 0
0.5 3.5 0
1.0 3.5 0
1.5 3.5 0
2.0 3.5 0
2.5 3.5 0
3.0 3.5 0
3.5 3.5 0
4.0 3.5 0
4.5 3.5 0
5.0 3.5 0
5.5 3.5 0
6.0 3.5 0
6.5 3.5 0
7.0 3.5 0
7.5 3.5 0
8.0 3.5 0
8.5 3.5 0
9.0 3.5 0
9.5 3.5 0
10.0 3.5 0
0.0 4.0 0
0.5 4.0 0
1.0 4.0 0
1.5 4.0 0
2.0 4.0 0
2.5 4.0 0
3.0 4.0 0
3.5 4.0 0
4.0 4.0 0
4.5 4.0 0
5.0 4.0 0
5.5 4.0 0
6.0 4.0 0
6.5 4.0 0
7.0 4.0 0
7.5 4.0 0
8.0 4.0 0
8.5 4.0 0
9.0 4.0 0
9.5 4.0 0
10.0 4.0 0
0.0 4.5 0
0.5 4.5 0
1.0 4.5 0
1.5 4.5 0
2.0 4.5 0
2.5 4.5 0
3.0 4.5 0
3.5 4.5 0
4.0 4.5 0
4.5 4.5 0
5.0 4.5 0
5.5 4.5 0
6.0 4.5 0
6.5 4.5 0
7.0 4.5 0
7.5 4.5 0
8.0 4.5 0
8.5 4.5 0
9.0 4.5 0
9.5 4.5 0
10.0 4.5 0
0.0 5.0 0
0.5 5.0 0
1.0 5.0 0
1.5 5.0 0
2.0 5.0 0
2.5 5.0 0
3.0 5.0 0
3.5 5.0 0
4.0 5.0 0
4.5 5.0 0
5.0 5.0 0
5.5 5.0 0
6.0 5.0 0
6.5 5.0 0
7.0 5.0 0
7.5 5.0 0
8.0 5.0 0
8.5 5.0 0
9.0 5.0 0
9.5 5.0 0
10.0 5.0 0
0.0 5.5 0
0.5 5.5 0
1.0 5.5 0
1.5 5.5 0
2.0 5.5 0
2.5 5.5 0
3.0 5.5 0
3.5 5.5 0
4.0 5.5 0
4.5 5.5 0
5.0 5.5 0
5.5 5.5 0
6.0 5.5 0
6.5 5.5 0
7.0 5.5 0
7.5 5.5 0
8.0 5.5 0
8.5 5.5 0
9.0 5.5 0
9.5 5.5 0
10.0 5.5 0
0.0 6.0 0
0.5 6.0 0
1.0 6.0 0
1.5 6.0 0
2.0 6.0 0
2.5 6.0 0
3.0 6.0 0
3.5 6.0 0
4.0 6.0 0
4.5 6.0 0
5.0 6.0 0
5.5 6.0 0
6.0 6.0 0
6.5 6.0 0
7.0 6.0 0
7.5 6.0 0
8.0 6.0 0
8.5 6.0 0
9.0 6.0 0
9.5 6.0 0
10.0 6.0 0
0.0 6.5 0
0.5 6.5 0
1.0 6.5 0
1.5 6.5 0
2.0 6.5 0
2.5 6.5 0
3.0 6.5 0
3.5 6.5 0
4.0 6.5 0
4.5 6.5 0
5.0 6.5 0
5.5 6.5 0
6.0 6.5 0
6.5 6.5 0
7.0 6.5 0
7.5 6.5 0
8.0 6.5 0
8.5 6.5 0
9.0 6.5 0
9.5 6.5 0
10.0 6.5 0
0.0 7.0 0
0.5 7.0 0
1.0 7.0 0
1.5 7.0 0
2.0 7.0 0
2.5 7.0 0
3.0 7.0 0
3.5 7.0 0
4.0 7.0 0
4.5 7.0 0
5.0 7.0 0
5.5 7.0 0
6.0 7.0 0
6.5 7.0 0
7.0 7.0 0
7.5 7.0 0
8.0 7.0 0
8.5 7.0 0
9.0 7.0 0
9.5 7.0 0
10.0 7.0 0
0.0 7.5 0
0.5 7.5 0
1.0 7.5 0
1.5 7.5 0
2.0 7.5 0
2.5 7.5 0
3.0 7.5 0
3.5 7.5 0
4.0 7.5 0
4.5 7.5 0
5.0 7.5 0
5.5 7.5 0
6.0 7.5 0
6.5 7.5 0
7.0 7.5 0
7.5 7.5 0
8.0 7.5 0
8.5 7.5 0
9.0 7.5 0
9.5 7.5 0
10.0 7.5 0
0.0 8.0 0
0.5 8.0 0
1.0 8.0 0
1.5 8.0 0
2.0 8.0 0
2.5 8.0 0
3.0 8.0 0
3.5 8.0 0
4.0 8.0 0
4.5 8.0 0
5.0 8.0 0
5.5 8.0 0
6.0 8.0 0
6.5 8.0 0
7.0 8.0 0
7.5 8.0 0
8.0 8.0 0
8.5 8.0 0
9.0 8.0 0
9.5 8.0 0
10.0 8.0 0
0.0 8.5 0
0.5 8.5 0
1.0 8.5 0
1.5 8.5 0
2.0 8.5 0
2.5 8.5 0
3.0 8.5 0
3.5 8.5 0
4.0 8.5 0
4.5 8.5 0
5.0 8.5 0
5.5 8.5 0
6.0 8.5 0
6.5 8.5 0
7.0 8.5 0
7.5 8.5 0
8.0 8.5 0
8.5 8.5 0
9.0 8.5 0
9.5 8.5 0
10.0 8.5 0
0.0 9.0 0
0.5 9.0 0
1.0 9.0 0
1.5 9.0 0
2.0 9.0 0
2.5 9.0 0
3.0 9.0 0
3.5 9.0 0
4.0 9.0 0
4.5 9.0 0
5.0 9.0 0
5.5 9.0 0
6.0 9.0 0
6.5 9.0 0
7.0 9.0 0
7.5 9.0 0
8.0 9.0 0
8.5 9.0 0
9.0 9.0 0
9.5 9.0 0
10.0 9.0 0
0.0 9.5 0
0.5 9.5 0
1.0 9.5 0
1.5 9.5 0
2.0 9.5 0
2.5 9.5 0
3.0 9.5 0
3.5 9.5 0
4.0 9.5 0
4.5 9.5 0
5.0 9.5 0
5.5 9.5 0
6.0 9.5 0
6.5 9.5 0
7.0 9.5 0
7.5 9.5 0
8.0 9.5 0
8.5 9.5 0
9.0 9.5 0
9.5 9.5 0
10.0 9.5 0
0.0 10.0 0
0.5 10.0 0
1.0 10.0 0
1.5 10.0 0
2.0 10.0 0
2.5 10.0 0
3.0 10.0 0
3.5 10.0 0
4.0 10.0 0
4.5 10.0 0
5.0 10.0 0
5.5 10.0 0
6.0 10.0 0
6.5 10.0 0
7.0 10.0 0
7.5 10.0 0
8.0 10.0 0
8.5 10.0 0
9.0 10.0 0
9.5 10.0 0
10.0 10.0 0

CELLS 400 2000
4 0 1 22 21
4 1 2 23 22
4 2 3 24 23
4 3 4 25 24
4 4 5 26 25
4 5 6 27 26
4 6 7 28 27
4 7 8 29 28
4 8 9 30 29
4 9 10 31 30
4 10 11 32 31
4 11 12 33 32
4 12 13 34 33
4 13 14 35 34
4 14 15 36 35
4 15 16 37 36
4 16 17 38 37
4 17 18 39 38
4 18 19 40 39
4 19 20 41 40
4 21 22 43 42
4 22 23 44 43
4 23 24 45 44
4 24 25 46 45
4 25 26 47 46
4 26 27 48 47
4 27 28 49 48
4 28 29 50 49
4 29 30 51 50
4 30 31 52 51
4 31 32 53 52
4 32 33 54 53
4 33 34 55 54
4 34 35 56 55
4 35 36 57 56
4 36 37 58 57
4 37 38 59 58
4 38 39 60 59
4 39 40 61 60
4 40 41 62 61
4 42 43 64 63
4 43 44 65 64
4 44 45 66 65
4 45 46 67 66
4 46 47 68 67
4 47 48 69 68
4 48 49 70 69
4 49 50 71 70
4 50 51 72 71
4 51 52 73 72
4 52 53 74 73
4 53 54 75 74
4 54 55 76 75
4 55 56 77 76
4 56 57 78 77
4 57 58 79 78
4 58 59 80 79
4 59 60 81 80
4 60 61 82 81
4 61 62 83 82
4 63 64 85 84
4 64 65 86 85
4 65 66 87 86
4 66 67 88 87
4 67 68 89 88
4 68 69 90 89
4 69 70 91 90
4 70 71 92 91
4 71 72 93 92
4 72 73 94 93
4 73 74 95 94
4 74 75 96 95
4 75 76 97 96
4 76 77 98 97
4 77 78 99 98
4 78 79 100 99
4 79 80 101 100
4 80 81 102 101
4 81 82 103 102
4 82 83 104 103
4 84 85 106 105
4 85 86 107 106
4 86 87 108 107
4 87 88 109 108
4 88 89 110 109
4 89 90 111 110
4 90 91 112 111
4 91 92 113 112
4 92 93 114 113
4 93 94 115 114
4 94 95 116 115
4 95 96 117 116
4 96 97 118 117
4 97 98 119 118
4 98 99 120 119
4 99 100 121 120
4 100 101 122 121
4 101 102 123 122
4 102 103 124 123
4 103 104 125 124
4 105 106 127 126
4 106 107 128 127
4 107 108 129 128
4 108 109 130 129
4 109 110 131 130
4 110 111 132 131
4 111 112 133 132
4 112 113 134 133
4 113 114 135 134
4 114 115 136 135
4 115 116 137 136
4 116 117 138 137
4 117 118 139 138
4 118 119 140 139
4 119 120 141 140
4 120 121 142 141
4 121 122 143 142
4 122 123 144 143
4 123 124 145 144
4 124 125 146 145
4 126 127 148 147
4 127 128 149 148
4 128 129 150 149
4 129 130 151 150
4 130 131 152 151
4 131 132 153 152
4 132 133 154 153
4 133 134 155 154
4 134 135 156 155
4 135 136 157 156
4 136 137 158 157
4 137 138 159 158
4 138 139 160 159
4 139 140 161 160
4 140 141 162 161
4 141 142 163 162
4 142 143 164 163
4 143 144 165 164
4 144 145 166 165
4 145 146 167 166
4 147 148 169 168
4 148 149 170 169
4 149 150 171 170
4 150 151 172 171
4 151 152 173 172
4 152 153 174 173
4 153 154 175 174
4 154 155 176 175
4 155 156 177 176
4 156 157 178 177
4 157 158 179 178
4 158 159 180 179
4 159 160 181 180
4 160 161 182 181
4 161 162 183 182
4 162 163 184 183
4 163 164 185 184
4 164 165 186 185
4 165 166 187 186
4 166 167 188 187
4 168 169 190 189
4 169 170 191 190
4 170 171 192 191
4 171 172 193 192
4 172 173 194 193
4 173 174 195 194
4 174 175 196 195
4 175 176 197 196
4 176 177 198 197
4 177 178 199 198
4 178 179 200 199
4 179 180 201 200
4 180 181 202 201
4 181 182 203 202
4 182 183 204 203
4 183 184 205 204
4 184 185 206 205
4 185 186 207 206
4 186 187 208 207
4 187 188 209 208
4 189 190 211 210
4 190 191 212 211
4 191 192 213 212
4 192 193 214 213
4 193 194 215 214
4 194 195 216 215
4 195 196 217 216
4 196 197 218 217
4 197 198 219 218
4 198 199 220 219
4 199 200 221 220
4 200 201 222 221
4 201 202 223 222
4 202 203 224 223
4 203 204 225 224
4 204 205 226 225
4 205 206 227 226
4 206 207 228 227
4 207 208 229 228
4 208 209 230 229
4 210 211 232 231
4 211 212 233 232
4 212 213 234 233
4 213 214 235 234
4 214 215 236 235
4 215 216 237 236
4 216 217 238 237
4 217 218 239 238
4 218 219 240 239
4 219 220 241 240
4 220 221 242 241
4 221 222 243 242
4 222 223 244 243
4 223 224 245 244
4 224 225 246 245
4 225 226 247 246
4 226 227 248 247
4 227 228 249 248
4 228 229 250 249
4 229 230 251 250
4 231 232 253 252
4 232 233 254 253
4 233 234 255 254
4 234 235 256 255
4 235 236 257 256
4 236 237 258 257
4 237 238 259 258
4 238 239 260 259
4 239 240 261 260
4 240 241 262 261
4 241 242 263 262
4 242 243 264 263
4 243 244 265 264
4 244 245 266 265
4 245 246 267 266
4 246 247 268 267
4 247 248 269 268
4 248 249 270 269
4 249 250 271 270
4 250 251 272 271
4 252 253 274 273
4 253 254 275 274
4 254 255 276 275
4 255 256 277 276
4 256 257 278 277
4 257 258 279 278
4 258 259 280 279
4 259 260 281 280
4 260 261 282 281
4 261 262 283 282
4 262 263 284 283
4 263 264 285 284
4 264 265 286 285
4 265 266 287 286
4 266 267 288 287
4 267 268 289 288
4 268 269 290 289
4 269 270 291 290
4 270 271 292 291
4 271 272 293 292
4 273 274 295 294
4 274 275 296 295
4 275 276 297 296
4 276 277 298 297
4 277 278 299 298
4 278 279 300 299
4 279 280 301 300
4 280 281 302 301
4 281 282 303 302
4 282 283 304 303
4 283 284 305 304
4 284 285 306 305
4 285 286 307 306
4 286 287 308 307
4 287 288 309 308
4 288 289 310 309
4 289 290 311 310
4 290 291 312 311
4 291 292 313 312
4 292 293 314 313
4 294 295 316 315
4 295 296 317 316
4 296 297 318 317
4 297 298 319 318
4 298 299 320 319
4 299 300 321 320
4 300 301 322 321
4 301 302 323 322
4 302 303 324 323
4 303 304 325 324
4 304 305 326 325
4 305 306 327 326
4 306 307 328 327
4 307 308 329 328
4 308 309 330 329
4 309 310 331 330
4 310 311 332 331
4 311 312 333 332
4 312 313 334 333
4 313 314 335 334
4 315 316 337 336
4 316 317 338 337
4 317 318 339 338
4 318 319 340 339
4 319 320 341 340
4 320 321 342 341
4 321 322 343 342
4 322 323 344 343
4 323 324 345 344
4 324 325 346 345
4 325 326 347 346
4 326 327 348 347
4 327 328 349 348
4 328 329 350 349
4 329 330 351 350
4 330 331 352 351
4 331 332 353 352
4 332 333 354 353
4 333 334 355 354
4 334 335 356 355
4 336 337 358 357
4 337 338 359 358
4 338 339 360 359
4 339 340 361 360
4 340 341 362 361
4 341 342 363 362
4 342 343 364 363
4 343 344 365 364
4 344 345 366 365
4 345 346 367 366
4 346 347 368 367
4 347 348 369 368
4 348 349 370 369
4 349 350 371 370
4 350 351 372 371
4 351 352 373 372
4 352 353 374 373
4 353 354 375 374
4 354 355 376 375
4 355 356 377 376
4 357 358 379 378
4 358 359 380 379
4 359 360 381 380
4 360 361 382 381
4 361 362 383 382
4 362 363 384 383
4 363 364 385 384
4 364 365 386 385
4 365 366 387 386
4 366 367 388 387
4 367 368 389 388
4 368 369 390 389
4 369 370 391 390
4 370 371 392 391
4 371 372 393 392
4 372 373 394 393
4 373 374 395 394
4 374 375 396 395
4 375 376 397 396
4 376 377 398 397
4 378 379 400 399
4 379 380 401 400
4 380 381 402 401
4 381 382 403 402
4 382 383 404 403
4 383 384 405 404
4 384 385 406 405
4 385 386 407 406
4 386 387 408 407
4 387 388 409 408
4 388 389 410 409
4 389 390 411 410
4 390 391 412 411
4 391 392 413 412
4 392 393 414 413
4 393 394 415 414
4 394 395 416 415
4 395 396 417 416
4 396 397 418 417
4 397 398 419 418
4 399 400 421 420
4 400 401 422 421
4 401 402 423 422
4 402 403 424 423
4 403 404 425 424
4 404 405 426 425
4 405 406 427 426
4 406 407 428 427
4 407 408 429 428
4 408 409 430 429
4 409 410 431 430
4 410 411 432 431
4 411 412 433 432
4 412 413 434 433
4 413 414 435 434
4 414 415 436 435
4 415 416 437 436
4 416 417 438 437
4 417 418 439 438
4 418 419 440 439

CELL_TYPES 400
9
9
9
9
9
9
9
9
9
9
9
9
9
9
9
9
9
9
9
9
9
9
9
9
9
9
9
9
9
9
9
9
9
9
9
9
9
9
9
9
9
9
9
9
9
9
9
9
9
9
9
9
9
9
9
9
9
9
9
9
9
9
9
9
9
9
9
9
9
9
9
9
9
9
9
9
9
9
9
9
9
9
9
9
9
9
9
9
9
9
9
9
9
9
9
9
9
9
9
9
9
9
9
9
9
9
9
9
9
9
9
9
9
9
9
9
9
9
9
9
9
9
9
9
9
9
9
9
9
9
9
9
9
9
9
9
9
9
9
9
9
9
9
9
9
9
9
9
9
9
9
9
9
9
9
9
9
9
9
9
9
9
9
9
9
9
9
9
9
9
9
9
9
9
9
9
9
9
9
9
9
9
9
9
9
9
9
9
9
9
9
9
9
9
9
9
9
9
9
9
9
9
9
9
9
9
9
9
9
9
9
9
9
9
9
9
9
9
9
9
9
9
9
9
9
9
9
9
9
9
9
9
9
9
9
9
9
9
9
9
9
9
9
9
9
9
9
9
9
9
9
9
9
9
9
9
9
9
9
9
9
9
9
9
9
9
9
9
9
9
9
9
9
9
9
9
9
9
9
9
9
9
9
9
9
9
9
9
9
9
9
9
9
9
9
9
9
9
9
9
9
9
9
9
9
9
9
9
9
9
9
9
9
9
9
9
9
9
9
9
9
9
9
9
9
9
9
9
9
9
9
9
9
9
9
9
9
9
9
9
9
9
9
9
9
9
9
9
9
9
9
9
9
9
9
9
9
9
9
9
9
9
9
9
9
9
9
9
9
9
9
9
9
9
9
9
9
9
9
9
9
9
9
9
9
9
9
9
9
9
9
9
9
9
9
9
9
9
9
9

CELL_DATA 400
SCALARS value float 1
LOOKUP_TABLE default
1.211090007801428
4.076008231843775
4.076008231843775
4.076008231843775
4.076008231843775
1.2070060366242397
1.9562230355821275
3.601958497625018
2.698613126222523
1.383330812659898
1.6352004004814917
0.8174520879154845
2.7019310445267983
3.278846301521246
3.2175428729925395
1.5205316085024068
2.0775662789834417
3.6162205191607533
4.9219663016190935
4.9219663016190935
4.9219663016190935
4.9219663016190935
4.289247379383008
4.289247379383008
4.289247379383008
4.289247379383008
2.034886763258081
1.0789055641797658
4.786818127467207
4.786818127467207
4.786818127467207
4.786818127467207
0.5701581262271832
0.9635333966170201
0.4371038628031504
3.4580695703207622
0.7110889999788927
0.9733591387405566
0.6924861363600537
4.408548381659628
4.408548381659628
4.408548381659628
4.408548381659628
0.9998827179934305
2.771045403359136
3.468220026702057
1.7851843025057872
4.742732168208332
4.742732168208332
4.742732168208332
4.742732168208332
1.8160403570366372
0.6354189518913628
0.3529768837095121
1.6563170061384276
3.9225677185048107
4.529280510874373
4.529280510874373
4.529280510874373
4.529280510874373
4.683500532926802
4.683500532926802
4.683500532926802
4.683500532926802
1.795027945601373
1.3102137396522906
4.4613765126281395
4.4613765126281395
4.4613765126281395
4.4613765126281395
1.4685837785896705
0.8413692035483616
0.8747177030215986
0.08947955038165811
0.31184354066517594
4.676053913996468
4.676053913996468
4.676053913996468
4.676053913996468
4.870592941068249
4.870592941068249
4.870592941068249
4.870592941068249
0.19519845526501156
4.658796856214208
4.658796856214208
4.658796856214208
4.658796856214208
4.556457908442762
4.556457908442762
4.556457908442762
4.556457908442762
1.6718432372224572
3.3945391237781
4.2336784213537015
4.2336784213537015
4.2336784213537015
4.2336784213537015
1.050815585724102
0.5437374104837034
2.2747680497929874
4.4495669758356
4.4495669758356
4.4495669758356
4.4495669758356
0.6416113127388767
3.8629181271765556
3.3524453669429577
0.6972967604853264
2.7463223106707373
3.2948675768618374
0.6629789969184868
4.438546893097974
4.438546893097974
4.438546893097974
4.438546893097974
0.638444426656346
0.2645979056825343
1.4606079264998701
1.1739231162470276
0.751965180220473
4.53571889070229
4.53571889070229
4.53571889070229
4.53571889070229
2.7958237345503782
3.0834020030304528
0.2998782086719892
4.725180425505038
4.725180425505038
4.725180425505038
4.725180425505038
0.5146978170046079
4.9360057814280704
4.9360057814280704
4.9360057814280704
4.9360057814280704
2.942884701398322
2.866623778874972
4.725080123914861
4.725080123914861
4.725080123914861
4.725080123914861
4.606450670826732
4.606450670826732
4.606450670826732
4.606450670826732
3.88025153719145
2.954242463885397
0.7708522803572282
0.2863609969088543
1.1433583543679142
3.459627794794362
3.5211379234987317
0.6059594103166704
0.9963516094033892
0.2807166978422859
3.217955256216711
2.0693898886351154
1.0634904867645316
0.9655685057279528
0.5421598036815034
2.353967433775302
0.9276432440336713
4.727782007555255
4.727782007555255
4.727782007555255
4.727782007555255
1.7097386824358423
3.1641721263408504
1.4735552442351958
0.5985578579003814
2.1711336897075277
1.7469206261526309
0.9738967489416972
1.2719920179987971
1.9321576712235937
3.197049730733525
1.834347176481093
3.4476912687169365
3.5669894009366896
1.972422644452313
1.9634293544535408
1.9585094844129491
0.9098684018661451
4.384450144479823
4.384450144479823
4.384450144479823
4.384450144479823
3.5543240580300832
0.7561753855934583
0.802462471910193
1.9005754480198445
4.890880735762991
4.890880735762991
4.890880735762991
4.890880735762991
1.7193388534250014
2.1333128011739366
3.151606709142966
2.4284392121343616
3.563955078727765
0.2589926959467914
2.622589833166895
3.8486167370774167
4.445667042670423
4.445667042670423
4.445667042670423
4.445667042670423
1.7684289606033643
0.412517883185205
3.5005581553348044
3.4776129549092993
0.9978260148361218
0.4743044549520975
1.6705555820736528
0.874835301464974
1.719864484425551
2.740637841431744
4.76785525838325
4.76785525838325
4.76785525838325
4.76785525838325
1.1614256721769594
3.254158553462856
3.617520020038359
1.9848765782611777
3.461525234049894
2.8373890541675806
2.6873599057392767
1.9046686406478464
2.6121147979318824
2.320068900053096
2.1732720026658674
0.47501613384127006
0.5920981882334309
2.835057005264044
2.4527974489710513
1.7588380023198225
0.3987777230791728
1.1887058059505278
2.4356145790379236
2.3520985126965517
3.489600764147977
4.569949551544859
4.569949551544859
4.569949551544859
4.569949551544859
1.9662170160185917
1.2760091787888421
0.19350130547115096
3.8948135909250476
4.538647425989487
4.538647425989487
4.538647425989487
4.538647425989487
2.177046090052154
0.6174222938780927
2.9695614194974573
4.702798916833842
4.702798916833842
4.702798916833842
4.702798916833842
4.372389154036437
4.372389154036437
4.372389154036437
4.372389154036437
2.380462342979235
3.751976635807655
3.332798304122801
1.570664060880328
1.9672703222599963
2.7375384837648644
4.869464498438492
4.869464498438492
4.869464498438492
4.869464498438492
1.9858750824010007
1.8112001350515572
1.410510321166677
2.6585933699770523
4.637385629386549
4.637385629386549
4.637385629386549
4.637385629386549
1.8445276208475598
4.653932459848631
4.653932459848631
4.653932459848631
4.653932459848631
3.173071309022331
2.4971656749814253
1.7868066980381663
4.479895670473199
4.479895670473199
4.479895670473199
4.479895670473199
4.432728401176385
4.432728401176385
4.432728401176385
4.432728401176385
2.5422886031403054
0.1432073994145544
4.530105913109564
4.530105913109564
4.530105913109564
4.530105913109564
2.3705642387097647
0.1584899643288007
3.7674977707393293
1.0476980242087663
1.0256131115006788
2.0427681310777346
4.883952739272841
4.883952739272841
4.883952739272841
4.883952739272841
0.7278182837133018
0.10396617506819028
2.376923250561116
0.12090957602924668
3.883084281690105
1.061835088712263
3.61136955633794
4.663410963753623
4.663410963753623
4.663410963753623
4.663410963753623
0.007667550565196302
4.729683967576185
4.729683967576185
4.729683967576185
4.729683967576185
4.458528860180463
4.458528860180463
4.458528860180463
4.458528860180463
0.6144079724727203
4.305561491373
4.305561491373
4.305561491373
4.305561491373
2.9080622204343336
0.4885635711311087
0.7757268211178986
2.0901032759921807
3.3581756673631697
2.0874542304679595
3.247204062999998
0.3644795566127368
3.6499287722711364
3.5402756690873503
3.239135168147538
3.350356201962463
4.240867544567733
4.240867544567733
4.240867544567733
4.240867544567733
3.4027460360230806
1.2087094662290014
4.0234143808049625
4.0234143808049625
4.0234143808049625
4.0234143808049625
2.069309381660276
4.691265505059695
4.691265505059695
4.691265505059695
4.691265505059695
3.930543017687023
3.1866848348506
0.6124955509002994
4.269535045051303
4.269535045051303
4.269535045051303
4.269535045051303
2.815366788048265
2.8886004519097987
3.2222915590116092
2.6541832332589843
2.691814082633461
3.8166861761806414
4.798708666822816
4.798708666822816
4.798708666822816
4.798708666822816
2.4926154346150113
4.471526590035052
4.471526590035052
4.471526590035052
4.471526590035052
4.350248569401367
4.350248569401367
4.350248569401367
4.350248569401367
3.1194689207905153
0.7812534942735228
1.8267905312515302
3.0740976048361306
4.804725917386526
4.804725917386526
4.804725917386526
4.804725917386526
