# vtk DataFile Version 3.0
AMR Mesh
ASCII
DATASET UNSTRUCTURED_GRID

POINTS 289 float
0.0 0.0 0
0.625 0.0 0
0.625 0.625 0
0.0 0.625 0
0.625 1.25 0
0.0 1.25 0
1.25 0.0 0
1.25 0.625 0
1.25 1.25 0
0.625 1.875 0
0.0 1.875 0
0.625 2.5 0
0.0 2.5 0
1.25 1.875 0
1.25 2.5 0
1.875 0.0 0
1.875 0.625 0
1.875 1.25 0
2.5 0.0 0
2.5 0.625 0
2.5 1.25 0
1.875 1.875 0
1.875 2.5 0
2.5 1.875 0
2.5 2.5 0
0.625 3.125 0
0.0 3.125 0
0.625 3.75 0
0.0 3.75 0
1.25 3.125 0
1.25 3.75 0
0.625 4.375 0
0.0 4.375 0
0.625 5.0 0
0.0 5.0 0
1.25 4.375 0
1.25 5.0 0
1.875 3.125 0
1.875 3.75 0
2.5 3.125 0
2.5 3.75 0
1.875 4.375 0
1.875 5.0 0
2.5 4.375 0
2.5 5.0 0
3.125 0.0 0
3.125 0.625 0
3.125 1.25 0
3.75 0.0 0
3.75 0.625 0
3.75 1.25 0
3.125 1.875 0
3.125 2.5 0
3.75 1.875 0
3.75 2.5 0
4.375 0.0 0
4.375 0.625 0
4.375 1.25 0
5.0 0.0 0
5.0 0.625 0
5.0 1.25 0
4.375 1.875 0
4.375 2.5 0
5.0 1.875 0
5.0 2.5 0
3.125 3.125 0
3.125 3.75 0
3.75 3.125 0
3.75 3.75 0
3.125 4.375 0
3.125 5.0 0
3.75 4.375 0
3.75 5.0 0
4.375 3.125 0
4.375 3.75 0
5.0 3.125 0
5.0 3.75 0
4.375 4.375 0
4.375 5.0 0
5.0 4.375 0
5.0 5.0 0
0.625 5.625 0
0.0 5.625 0
0.625 6.25 0
0.0 6.25 0
1.25 5.625 0
1.25 6.25 0
0.625 6.875 0
0.0 6.875 0
0.625 7.5 0
0.0 7.5 0
1.25 6.875 0
1.25 7.5 0
1.875 5.625 0
1.875 6.25 0
2.5 5.625 0
2.5 6.25 0
1.875 6.875 0
1.875 7.5 0
2.5 6.875 0
2.5 7.5 0
0.625 8.125 0
0.0 8.125 0
0.625 8.75 0
0.0 8.75 0
1.25 8.125 0
1.25 8.75 0
0.625 9.375 0
0.0 9.375 0
0.625 10.0 0
0.0 10.0 0
1.25 9.375 0
1.25 10.0 0
1.875 8.125 0
1.875 8.75 0
2.5 8.125 0
2.5 8.75 0
1.875 9.375 0
1.875 10.0 0
2.5 9.375 0
2.5 10.0 0
3.125 5.625 0
3.125 6.25 0
3.75 5.625 0
3.75 6.25 0
3.125 6.875 0
3.125 7.5 0
3.75 6.875 0
3.75 7.5 0
4.375 5.625 0
4.375 6.25 0
5.0 5.625 0
5.0 6.25 0
4.375 6.875 0
4.375 7.5 0
5.0 6.875 0
5.0 7.5 0
3.125 8.125 0
3.125 8.75 0
3.75 8.125 0
3.75 8.75 0
3.125 9.375 0
3.125 10.0 0
3.75 9.375 0
3.75 10.0 0
4.375 8.125 0
4.375 8.75 0
5.0 8.125 0
5.0 8.75 0
4.375 9.375 0
4.375 10.0 0
5.0 9.375 0
5.0 10.0 0
5.625 0.0 0
5.625 0.625 0
5.625 1.25 0
6.25 0.0 0
6.25 0.625 0
6.25 1.25 0
5.625 1.875 0
5.625 2.5 0
6.25 1.875 0
6.25 2.5 0
6.875 0.0 0
6.875 0.625 0
6.875 1.25 0
7.5 0.0 0
7.5 0.625 0
7.5 1.25 0
6.875 1.875 0
6.875 2.5 0
7.5 1.875 0
7.5 2.5 0
5.625 3.125 0
5.625 3.75 0
6.25 3.125 0
6.25 3.75 0
5.625 4.375 0
5.625 5.0 0
6.25 4.375 0
6.25 5.0 0
6.875 3.125 0
6.875 3.75 0
7.5 3.125 0
7.5 3.75 0
6.875 4.375 0
6.875 5.0 0
7.5 4.375 0
7.5 5.0 0
8.125 0.0 0
8.125 0.625 0
8.125 1.25 0
8.75 0.0 0
8.75 0.625 0
8.75 1.25 0
8.125 1.875 0
8.125 2.5 0
8.75 1.875 0
8.75 2.5 0
9.375 0.0 0
9.375 0.625 0
9.375 1.25 0
10.0 0.0 0
10.0 0.625 0
10.0 1.25 0
9.375 1.875 0
9.375 2.5 0
10.0 1.875 0
10.0 2.5 0
8.125 3.125 0
8.125 3.75 0
8.75 3.125 0
8.75 3.75 0
8.125 4.375 0
8.125 5.0 0
8.75 4.375 0
8.75 5.0 0
9.375 3.125 0
9.375 3.75 0
10.0 3.125 0
10.0 3.75 0
9.375 4.375 0
9.375 5.0 0
10.0 4.375 0
10.0 5.0 0
5.625 5.625 0
5.625 6.25 0
6.25 5.625 0
6.25 6.25 0
5.625 6.875 0
5.625 7.5 0
6.25 6.875 0
6.25 7.5 0
6.875 5.625 0
6.875 6.25 0
7.5 5.625 0
7.5 6.25 0
6.875 6.875 0
6.875 7.5 0
7.5 6.875 0
7.5 7.5 0
5.625 8.125 0
5.625 8.75 0
6.25 8.125 0
6.25 8.75 0
5.625 9.375 0
5.625 10.0 0
6.25 9.375 0
6.25 10.0 0
6.875 8.125 0
6.875 8.75 0
7.5 8.125 0
7.5 8.75 0
6.875 9.375 0
6.875 10.0 0
7.5 9.375 0
7.5 10.0 0
8.125 5.625 0
8.125 6.25 0
8.75 5.625 0
8.75 6.25 0
8.125 6.875 0
8.125 7.5 0
8.75 6.875 0
8.75 7.5 0
9.375 5.625 0
9.375 6.25 0
10.0 5.625 0
10.0 6.25 0
9.375 6.875 0
9.375 7.5 0
10.0 6.875 0
10.0 7.5 0
8.125 8.125 0
8.125 8.75 0
8.75 8.125 0
8.75 8.75 0
8.125 9.375 0
8.125 10.0 0
8.75 9.375 0
8.75 10.0 0
9.375 8.125 0
9.375 8.75 0
10.0 8.125 0
10.0 8.75 0
9.375 9.375 0
9.375 10.0 0
10.0 9.375 0
10.0 10.0 0

CELLS 256 1280
4 0 1 2 3
4 3 2 4 5
4 1 6 7 2
4 2 7 8 4
4 5 4 9 10
4 10 9 11 12
4 4 8 13 9
4 9 13 14 11
4 6 15 16 7
4 7 16 17 8
4 15 18 19 16
4 16 19 20 17
4 8 17 21 13
4 13 21 22 14
4 17 20 23 21
4 21 23 24 22
4 12 11 25 26
4 26 25 27 28
4 11 14 29 25
4 25 29 30 27
4 28 27 31 32
4 32 31 33 34
4 27 30 35 31
4 31 35 36 33
4 14 22 37 29
4 29 37 38 30
4 22 24 39 37
4 37 39 40 38
4 30 38 41 35
4 35 41 42 36
4 38 40 43 41
4 41 43 44 42
4 18 45 46 19
4 19 46 47 20
4 45 48 49 46
4 46 49 50 47
4 20 47 51 23
4 23 51 52 24
4 47 50 53 51
4 51 53 54 52
4 48 55 56 49
4 49 56 57 50
4 55 58 59 56
4 56 59 60 57
4 50 57 61 53
4 53 61 62 54
4 57 60 63 61
4 61 63 64 62
4 24 52 65 39
4 39 65 66 40
4 52 54 67 65
4 65 67 68 66
4 40 66 69 43
4 43 69 70 44
4 66 68 71 69
4 69 71 72 70
4 54 62 73 67
4 67 73 74 68
4 62 64 75 73
4 73 75 76 74
4 68 74 77 71
4 71 77 78 72
4 74 76 79 77
4 77 79 80 78
4 34 33 81 82
4 82 81 83 84
4 33 36 85 81
4 81 85 86 83
4 84 83 87 88
4 88 87 89 90
4 83 86 91 87
4 87 91 92 89
4 36 42 93 85
4 85 93 94 86
4 42 44 95 93
4 93 95 96 94
4 86 94 97 91
4 91 97 98 92
4 94 96 99 97
4 97 99 100 98
4 90 89 101 102
4 102 101 103 104
4 89 92 105 101
4 101 105 106 103
4 104 103 107 108
4 108 107 109 110
4 103 106 111 107
4 107 111 112 109
4 92 98 113 105
4 105 113 114 106
4 98 100 115 113
4 113 115 116 114
4 106 114 117 111
4 111 117 118 112
4 114 116 119 117
4 117 119 120 118
4 44 70 121 95
4 95 121 122 96
4 70 72 123 121
4 121 123 124 122
4 96 122 125 99
4 99 125 126 100
4 122 124 127 125
4 125 127 128 126
4 72 78 129 123
4 123 129 130 124
4 78 80 131 129
4 129 131 132 130
4 124 130 133 127
4 127 133 134 128
4 130 132 135 133
4 133 135 136 134
4 100 126 137 115
4 115 137 138 116
4 126 128 139 137
4 137 139 140 138
4 116 138 141 119
4 119 141 142 120
4 138 140 143 141
4 141 143 144 142
4 128 134 145 139
4 139 145 146 140
4 134 136 147 145
4 145 147 148 146
4 140 146 149 143
4 143 149 150 144
4 146 148 151 149
4 149 151 152 150
4 58 153 154 59
4 59 154 155 60
4 153 156 157 154
4 154 157 158 155
4 60 155 159 63
4 63 159 160 64
4 155 158 161 159
4 159 161 162 160
4 156 163 164 157
4 157 164 165 158
4 163 166 167 164
4 164 167 168 165
4 158 165 169 161
4 161 169 170 162
4 165 168 171 169
4 169 171 172 170
4 64 160 173 75
4 75 173 174 76
4 160 162 175 173
4 173 175 176 174
4 76 174 177 79
4 79 177 178 80
4 174 176 179 177
4 177 179 180 178
4 162 170 181 175
4 175 181 182 176
4 170 172 183 181
4 181 183 184 182
4 176 182 185 179
4 179 185 186 180
4 182 184 187 185
4 185 187 188 186
4 166 189 190 167
4 167 190 191 168
4 189 192 193 190
4 190 193 194 191
4 168 191 195 171
4 171 195 196 172
4 191 194 197 195
4 195 197 198 196
4 192 199 200 193
4 193 200 201 194
4 199 202 203 200
4 200 203 204 201
4 194 201 205 197
4 197 205 206 198
4 201 204 207 205
4 205 207 208 206
4 172 196 209 183
4 183 209 210 184
4 196 198 211 209
4 209 211 212 210
4 184 210 213 187
4 187 213 214 188
4 210 212 215 213
4 213 215 216 214
4 198 206 217 211
4 211 217 218 212
4 206 208 219 217
4 217 219 220 218
4 212 218 221 215
4 215 221 222 216
4 218 220 223 221
4 221 223 224 222
4 80 178 225 131
4 131 225 226 132
4 178 180 227 225
4 225 227 228 226
4 132 226 229 135
4 135 229 230 136
4 226 228 231 229
4 229 231 232 230
4 180 186 233 227
4 227 233 234 228
4 186 188 235 233
4 233 235 236 234
4 228 234 237 231
4 231 237 238 232
4 234 236 239 237
4 237 239 240 238
4 136 230 241 147
4 147 241 242 148
4 230 232 243 241
4 241 243 244 242
4 148 242 245 151
4 151 245 246 152
4 242 244 247 245
4 245 247 248 246
4 232 238 249 243
4 243 249 250 244
4 238 240 251 249
4 249 251 252 250
4 244 250 253 247
4 247 253 254 248
4 250 252 255 253
4 253 255 256 254
4 188 214 257 235
4 235 257 258 236
4 214 216 259 257
4 257 259 260 258
4 236 258 261 239
4 239 261 262 240
4 258 260 263 261
4 261 263 264 262
4 216 222 265 259
4 259 265 266 260
4 222 224 267 265
4 265 267 268 266
4 260 266 269 263
4 263 269 270 264
4 266 268 271 269
4 269 271 272 270
4 240 262 273 251
4 251 273 274 252
4 262 264 275 273
4 273 275 276 274
4 252 274 277 255
4 255 277 278 256
4 274 276 279 277
4 277 279 280 278
4 264 270 281 275
4 275 281 282 276
4 270 272 283 281
4 281 283 284 282
4 276 282 285 279
4 279 285 286 280
4 282 284 287 285
4 285 287 288 286

CELL_TYPES 256
9
9
9
9
9
9
9
9
9
9
9
9
9
9
9
9
9
9
9
9
9
9
9
9
9
9
9
9
9
9
9
9
9
9
9
9
9
9
9
9
9
9
9
9
9
9
9
9
9
9
9
9
9
9
9
9
9
9
9
9
9
9
9
9
9
9
9
9
9
9
9
9
9
9
9
9
9
9
9
9
9
9
9
9
9
9
9
9
9
9
9
9
9
9
9
9
9
9
9
9
9
9
9
9
9
9
9
9
9
9
9
9
9
9
9
9
9
9
9
9
9
9
9
9
9
9
9
9
9
9
9
9
9
9
9
9
9
9
9
9
9
9
9
9
9
9
9
9
9
9
9
9
9
9
9
9
9
9
9
9
9
9
9
9
9
9
9
9
9
9
9
9
9
9
9
9
9
9
9
9
9
9
9
9
9
9
9
9
9
9
9
9
9
9
9
9
9
9
9
9
9
9
9
9
9
9
9
9
9
9
9
9
9
9
9
9
9
9
9
9
9
9
9
9
9
9
9
9
9
9
9
9
9
9
9
9
9
9
9
9
9
9
9
9
9
9
9
9
9
9
9
9
9
9
9
9

CELL_DATA 256
SCALARS value float 1
LOOKUP_TABLE default
0.936135681642037
2.705767416337239
2.4634072440490606
3.8072155393278893
2.8456233305147642
3.8109344617777943
2.881112671495341
1.7675825144549129
2.1687209957359617
2.3024854406762714
0.8359202897242235
3.081871801716407
-0.8409153175553841
1.1119111022683839
3.1160223560155416
1.4241102104369134
1.6992642546584922
1.942277796540876
2.6264666053278636
2.3072579669020543
2.677960975816425
1.9618469465639974
2.0074811584833356
3.6651238171173652
2.2547352307662534
1.286989630509287
4.101027731024893
3.6160802740841262
3.9418042674171083
2.6693489614987747
2.344771124471264
2.1453595555291787
3.5220560584601124
1.3956047599949972
3.6030478186979025
1.2951917227504803
4.749285552664675
1.1327553537149337
1.6931131758869258
2.650153283094189
3.401164303300635
2.4400998790506248
1.4375106320124276
2.221473598732337
1.9209598819384874
3.627181204162988
3.0688473623421184
2.7326562918157187
2.685540738001766
3.6261750344271366
2.2332491650755277
3.7397603527657046
3.405136510676175
1.4273229049770215
3.8248934017778513
1.7686002146493252
2.8770256069218276
2.450804989466354
2.859313856116743
3.208753116122862
2.752209464581112
1.2597923391201988
1.1844122298922428
2.713961226717717
3.982383212297932
3.1227293456600846
2.329992616036015
3.1245500997234883
2.9240321758948284
1.2149626764724646
2.9955071373894935
4.01143036545689
0.5876449815937856
1.897176026786823
1.8350853506964773
3.395506199795194
2.8973934712447207
3.833276198181759
3.163313281577303
2.8250425518081395
1.4531652396576116
1.2913841092064606
2.7476098612996935
3.3669945816195685
3.649090109526947
1.4543844980673035
4.2761131880761205
3.6005951158767635
3.3551247761057477
1.3873410933372783
2.8232531437395463
1.7274085920811169
1.45381036349337
2.1215175218162337
2.901080442169803
3.0357311274666
3.676237381748829
4.029484564103245
2.9147912039379325
3.071481799742689
2.065655805601131
2.12299657618429
3.311799006334015
3.3857657053218704
3.2463316620094345
1.4209565265937065
2.535468744737208
2.301537113638194
0.8800338088273982
2.5997300351952797
2.382939775353203
2.91502302395612
2.1749091118940385
0.43651347746678226
1.8758260598405903
3.835480889655927
3.5203981273620286
3.46386465668773
2.208057773747918
2.6857226404800025
2.605918602959101
1.435969445094655
2.164249483690731
1.3191038597770994
2.599937783783836
3.7629694093156845
1.0876840346629286
3.092786955610089
2.6916059981242313
4.393459490670384
2.0692789199299426
2.485747986446109
3.884218241513354
1.4204818698638257
2.1508561894187395
3.3782414480587275
2.5315105258001225
2.2117365469349775
2.1634468860980585
1.7841913990581162
1.108199295610845
5.6032467317543855
2.9561028883089944
2.268439085557082
1.4788058982749355
2.796632965175982
2.6497022174574245
3.4726203606509465
4.115863169258572
1.8688611891693452
1.6275783562392174
2.6191172290415405
0.7390324842741944
2.143078244039688
3.1009571137501943
2.180282298475901
4.341188365066056
1.6241991376018783
3.5717446523173475
4.373847180164791
1.6489879245644938
2.4707696346145473
1.6906719682670455
3.4687984161631147
4.150464677109659
1.85688918279771
2.827903601531431
3.1174774267159986
3.878643873013588
2.2299373737799284
3.943603675194372
1.9179963834339042
3.4509552690881
3.1097584775374
0.725496470254263
2.9679374043341067
1.3019815363384157
1.781426640149764
2.055901469867852
1.1448744564699094
1.9198029334471531
4.54796282815994
0.8988916951088028
4.107307158401285
2.3396079300898895
2.1698165882484197
1.739667515754256
2.3008079246203845
3.201389411704011
2.855180297156321
1.810700891563128
2.5918500876462565
3.364388302498174
0.9858157788745132
0.9506682876286208
0.6161029695420674
2.808532454418613
3.6466249419734025
4.385578123425237
2.682878890801795
2.867985775180407
2.8387647189692857
2.013589031988059
5.044052509590377
3.031440047078247
0.11805152489929638
2.214204019848051
4.412265898205159
2.7417385770365605
2.884496816779323
2.3330954560901733
3.8802409369731348
2.036467044684361
2.6004100342150016
4.03809628187554
0.6500398850120781
2.2170578887164516
2.251711733470983
2.8732686442871773
1.9206048054033675
1.9248749460662087
3.783210227670609
0.8170285443299841
1.36429181228454
3.348469220649874
4.29118806981856
2.912295356408153
4.431499982805483
1.8239088765477667
3.538204626117378
1.979710071595406
1.0559906042843437
1.8745869358631437
5.004381863784361
3.1055062203372126
0.8514665089257654
1.7371500985874113
1.998660171523291
3.0035382743321377
2.5461293702450325
2.1608903358302682
1.421888495327411
2.3485611022592106
2.0831560767634247
2.99490306899026
2.738694705702173
2.997957285909028
3.3785719553906413
1.6227301835030492
1.149737930181595
2.012281494019261
0.2399740925715519
1.6120722631463849
1.7822462410989819
4.001821538719039
1.8940110123857299
